; ITP file created by ByteFF-ML, 2025-12-06 04:41:51.736837

[ atomtypes ]
;name           bonded.type        at.num        mass        charge   ptype           sigma         epsilon
 c0bf                                   6      0.0000       0.00000       A     3.39813e-01     4.50976e-01
 c1bf                                   6      0.0000       0.00000       A     3.31356e-01     4.11183e-01
 c2bf                                   6      0.0000       0.00000       A     3.31508e-01     4.12834e-01
 c3bf                                   6      0.0000       0.00000       A     3.31356e-01     4.11183e-01
 c4bf                                   6      0.0000       0.00000       A     3.39813e-01     4.50976e-01
 n5bf                                   7      0.0000       0.00000       A     3.38255e-01     3.94373e-01
 c6bf                                   6      0.0000       0.00000       A     3.31548e-01     4.12659e-01
 n7bf                                   7      0.0000       0.00000       A     3.38255e-01     3.94373e-01
 n8bf                                   7      0.0000       0.00000       A     3.19428e-01     8.94136e-01
 c9bf                                   6      0.0000       0.00000       A     3.39585e-01     4.49212e-01
 c10bf                                  6      0.0000       0.00000       A     3.39712e-01     4.49806e-01
 c11bf                                  6      0.0000       0.00000       A     3.39727e-01     4.50797e-01
 n12bf                                  7      0.0000       0.00000       A     3.18141e-01     6.81151e-01
 c13bf                                  6      0.0000       0.00000       A     3.39727e-01     4.50797e-01
 c14bf                                  6      0.0000       0.00000       A     3.39712e-01     4.49806e-01
 c15bf                                  6      0.0000       0.00000       A     3.39585e-01     4.49212e-01
 c16bf                                  6      0.0000       0.00000       A     3.31356e-01     4.10365e-01
 o17bf                                  8      0.0000       0.00000       A     3.04770e-01     6.12733e-01
 c18bf                                  6      0.0000       0.00000       A     3.31487e-01     4.11657e-01
 c19bf                                  6      0.0000       0.00000       A     3.31489e-01     4.12218e-01
 c20bf                                  6      0.0000       0.00000       A     3.31479e-01     4.12586e-01
 c21bf                                  6      0.0000       0.00000       A     3.31504e-01     4.13021e-01
 c22bf                                  6      0.0000       0.00000       A     3.31420e-01     4.10894e-01
 c23bf                                  6      0.0000       0.00000       A     3.31546e-01     4.14956e-01
 n24bf                                  7      0.0000       0.00000       A     3.20800e-01     8.49241e-01
 n25bf                                  7      0.0000       0.00000       A     3.38251e-01     3.94826e-01
 c26bf                                  6      0.0000       0.00000       A     3.31301e-01     4.12308e-01
 c27bf                                  6      0.0000       0.00000       A     3.31301e-01     4.12308e-01
 n28bf                                  7      0.0000       0.00000       A     3.38251e-01     3.94826e-01
 h29bf                                  1      0.0000       0.00000       A     2.59989e-01     8.71151e-02
 h30bf                                  1      0.0000       0.00000       A     2.59989e-01     8.71151e-02
 h31bf                                  1      0.0000       0.00000       A     2.59989e-01     8.71151e-02
 h32bf                                  1      0.0000       0.00000       A     2.62556e-01     6.77132e-02
 h33bf                                  1      0.0000       0.00000       A     2.59989e-01     8.71151e-02
 h34bf                                  1      0.0000       0.00000       A     2.59989e-01     8.71151e-02
 h35bf                                  1      0.0000       0.00000       A     2.59989e-01     8.71151e-02
 h36bf                                  1      0.0000       0.00000       A     2.42127e-01     8.72842e-02
 h37bf                                  1      0.0000       0.00000       A     2.42127e-01     8.72842e-02
 h38bf                                  1      0.0000       0.00000       A     2.60149e-01     8.67575e-02
 h39bf                                  1      0.0000       0.00000       A     2.42171e-01     8.72571e-02
 h40bf                                  1      0.0000       0.00000       A     2.42171e-01     8.72571e-02
 h41bf                                  1      0.0000       0.00000       A     2.42171e-01     8.72571e-02
 h42bf                                  1      0.0000       0.00000       A     2.42171e-01     8.72571e-02
 h43bf                                  1      0.0000       0.00000       A     2.60149e-01     8.67575e-02
 h44bf                                  1      0.0000       0.00000       A     2.42127e-01     8.72842e-02
 h45bf                                  1      0.0000       0.00000       A     2.42127e-01     8.72842e-02
 h46bf                                  1      0.0000       0.00000       A     2.62477e-01     6.73541e-02
 h47bf                                  1      0.0000       0.00000       A     2.62457e-01     6.74531e-02
 h48bf                                  1      0.0000       0.00000       A     2.62470e-01     6.73445e-02
 h49bf                                  1      0.0000       0.00000       A     2.62555e-01     6.79734e-02
 h50bf                                  1      0.0000       0.00000       A     2.53897e-01     6.74946e-02
 h51bf                                  1      0.0000       0.00000       A     2.53897e-01     6.74946e-02

[ moleculetype ]
;name             nrexcl
 set_2_13              3

[ atoms ]
;       nr            type      resi   res      atom      cgnr      charge          mass ; qtot
         1            c0bf         1   UNL        c0         1    -0.15050       12.0110 ; qtot   -0.150
         2            c1bf         1   UNL        c1         2     0.16283       12.0110 ; qtot    0.012
         3            c2bf         1   UNL        c2         3    -0.27614       12.0110 ; qtot   -0.264
         4            c3bf         1   UNL        c3         4     0.16283       12.0110 ; qtot   -0.101
         5            c4bf         1   UNL        c4         5    -0.15050       12.0110 ; qtot   -0.251
         6            n5bf         1   UNL        n5         6    -0.25087       14.0070 ; qtot   -0.502
         7            c6bf         1   UNL        c6         7     0.38591       12.0110 ; qtot   -0.116
         8            n7bf         1   UNL        n7         8    -0.25087       14.0070 ; qtot   -0.367
         9            n8bf         1   UNL        n8         9    -0.78178       14.0070 ; qtot   -1.149
        10            c9bf         1   UNL        c9        10     0.23669       12.0110 ; qtot   -0.912
        11           c10bf         1   UNL       c10        11    -0.10223       12.0110 ; qtot   -1.015
        12           c11bf         1   UNL       c11        12     0.10928       12.0110 ; qtot   -0.905
        13           n12bf         1   UNL       n12        13    -0.41105       14.0070 ; qtot   -1.316
        14           c13bf         1   UNL       c13        14     0.10928       12.0110 ; qtot   -1.207
        15           c14bf         1   UNL       c14        15    -0.10223       12.0110 ; qtot   -1.309
        16           c15bf         1   UNL       c15        16     0.23669       12.0110 ; qtot   -1.073
        17           c16bf         1   UNL       c16        17     0.62987       12.0110 ; qtot   -0.443
        18           o17bf         1   UNL       o17        18    -0.59049       15.9990 ; qtot   -1.033
        19           c18bf         1   UNL       c18        19    -0.13104       12.0110 ; qtot   -1.164
        20           c19bf         1   UNL       c19        20    -0.06973       12.0110 ; qtot   -1.234
        21           c20bf         1   UNL       c20        21    -0.11168       12.0110 ; qtot   -1.346
        22           c21bf         1   UNL       c21        22    -0.09123       12.0110 ; qtot   -1.437
        23           c22bf         1   UNL       c22        23    -0.09650       12.0110 ; qtot   -1.533
        24           c23bf         1   UNL       c23        24     0.05408       12.0110 ; qtot   -1.479
        25           n24bf         1   UNL       n24        25     0.31192       14.0070 ; qtot   -1.167
        26           n25bf         1   UNL       n25        26    -0.47997       14.0070 ; qtot   -1.647
        27           c26bf         1   UNL       c26        27     0.20629       12.0110 ; qtot   -1.441
        28           c27bf         1   UNL       c27        28     0.20629       12.0110 ; qtot   -1.235
        29           n28bf         1   UNL       n28        29    -0.47997       14.0070 ; qtot   -1.715
        30           h29bf         1   UNL       h29        30     0.05717        1.0080 ; qtot   -1.658
        31           h30bf         1   UNL       h30        31     0.05717        1.0080 ; qtot   -1.600
        32           h31bf         1   UNL       h31        32     0.05717        1.0080 ; qtot   -1.543
        33           h32bf         1   UNL       h32        33     0.13105        1.0080 ; qtot   -1.412
        34           h33bf         1   UNL       h33        34     0.05717        1.0080 ; qtot   -1.355
        35           h34bf         1   UNL       h34        35     0.05717        1.0080 ; qtot   -1.298
        36           h35bf         1   UNL       h35        36     0.05717        1.0080 ; qtot   -1.241
        37           h36bf         1   UNL       h36        37     0.05798        1.0080 ; qtot   -1.183
        38           h37bf         1   UNL       h37        38     0.05798        1.0080 ; qtot   -1.125
        39           h38bf         1   UNL       h38        39     0.07208        1.0080 ; qtot   -1.053
        40           h39bf         1   UNL       h39        40     0.06015        1.0080 ; qtot   -0.993
        41           h40bf         1   UNL       h40        41     0.06015        1.0080 ; qtot   -0.932
        42           h41bf         1   UNL       h41        42     0.06015        1.0080 ; qtot   -0.872
        43           h42bf         1   UNL       h42        43     0.06015        1.0080 ; qtot   -0.812
        44           h43bf         1   UNL       h43        44     0.07208        1.0080 ; qtot   -0.740
        45           h44bf         1   UNL       h44        45     0.05798        1.0080 ; qtot   -0.682
        46           h45bf         1   UNL       h45        46     0.05798        1.0080 ; qtot   -0.624
        47           h46bf         1   UNL       h46        47     0.12841        1.0080 ; qtot   -0.496
        48           h47bf         1   UNL       h47        48     0.12243        1.0080 ; qtot   -0.373
        49           h48bf         1   UNL       h48        49     0.12153        1.0080 ; qtot   -0.252
        50           h49bf         1   UNL       h49        50     0.13917        1.0080 ; qtot   -0.113
        51           h50bf         1   UNL       h50        51     0.05626        1.0080 ; qtot   -0.056
        52           h51bf         1   UNL       h51        52     0.05627        1.0080 ; qtot   -0.000

[ bonds ]
;       ai        aj funct               r               k
         1         2     1        0.150694   207469.745923
         1        30     1        0.109354   305309.983691
         1        31     1        0.109354   305309.983691
         1        32     1        0.109354   305309.983691
         2         3     1        0.140051   285005.555713
         2         8     1        0.133745   333057.585254
         3         4     1        0.140051   285005.555713
         3        33     1        0.108514   321723.577686
         4         5     1        0.150694   207469.745923
         4         6     1        0.133745   333057.585254
         5        34     1        0.109354   305309.983691
         5        35     1        0.109354   305309.983691
         5        36     1        0.109354   305309.983691
         6         7     1        0.135061   255154.794434
         7         8     1        0.135061   255154.794434
         7         9     1        0.136150   322423.090186
         9        10     1        0.146885   181060.582568
         9        16     1        0.146885   181060.557031
        10        11     1        0.153334   175036.020947
        10        37     1        0.109481   294444.786377
        10        38     1        0.109481   294444.786377
        11        12     1        0.153427   175080.787500
        11        15     1        0.154277   149842.130322
        11        39     1        0.109325   303915.912891
        12        13     1        0.147342   175956.850806
        12        40     1        0.109385   298254.744336
        12        41     1        0.109385   298254.744336
        13        14     1        0.147342   175956.876343
        13        17     1        0.136001   308789.287158
        14        15     1        0.153427   175080.787500
        14        42     1        0.109385   298254.744336
        14        43     1        0.109385   298254.744336
        15        16     1        0.153334   175036.020947
        15        44     1        0.109325   303915.912891
        16        45     1        0.109481   294444.811914
        16        46     1        0.109481   294444.811914
        17        18     1        0.123425   589803.750195
        17        19     1        0.151154   179231.282812
        19        20     1        0.140149   294198.046826
        19        24     1        0.140430   275134.824512
        20        21     1        0.139562   312040.263330
        20        47     1        0.108524   321687.187305
        21        22     1        0.139892   304517.618262
        21        48     1        0.108569   322043.736426
        22        23     1        0.139494   319079.158936
        22        49     1        0.108573   321669.847607
        23        24     1        0.139992   292712.527637
        23        50     1        0.108416   325640.663818
        24        25     1        0.142436   228476.661475
        25        26     1        0.134008   245778.870264
        25        29     1        0.134008   245778.870264
        26        27     1        0.133423   350873.549609
        27        28     1        0.141148   279463.543311
        27        51     1        0.108128   339085.415625
        28        29     1        0.133423   350873.498535
        28        52     1        0.108128   339085.415625

[ angles ]
;       ai        aj        ak funct           theta             cth
         1         2         3     1      122.040428      489.957279
         1         2         8     1      116.354942      475.838226
         2         1        30     1      110.547607      500.572608
         2         1        31     1      110.547607      500.572608
         2         1        32     1      110.547607      500.572608
         2         3         4     1      117.478683      761.775612
         2         3        33     1      121.294067      418.995525
         2         8         7     1      116.614647      960.079055
         3         2         8     1      121.655540      736.540159
         3         4         5     1      122.040428      489.957279
         3         4         6     1      121.655540      736.540159
         4         3        33     1      121.294067      418.995525
         4         5        34     1      110.547607      500.572608
         4         5        35     1      110.547607      500.572608
         4         5        36     1      110.547607      500.572608
         4         6         7     1      116.614647      960.079055
         5         4         6     1      116.354942      475.838226
         6         7         8     1      126.191666      604.351846
         6         7         9     1      116.861961      541.920764
         7         9        10     1      122.793289      492.092852
         7         9        16     1      122.793289      492.092852
         8         7         9     1      116.861961      541.920764
         9        10        11     1      102.892921      518.507927
         9        10        37     1      110.665466      411.334967
         9        10        38     1      110.665466      411.334967
         9        16        15     1      102.892921      518.507927
         9        16        45     1      110.665466      411.334967
         9        16        46     1      110.665466      411.334967
        10         9        16     1      113.053551      339.130642
        10        11        12     1      115.967918      490.766039
        10        11        15     1      103.531944      553.400524
        10        11        39     1      110.411415      471.837231
        11        10        37     1      112.134521      456.886371
        11        10        38     1      112.134521      456.886371
        11        12        13     1      103.395767      529.540724
        11        12        40     1      112.216675      453.127085
        11        12        41     1      112.216675      453.127085
        11        15        14     1      103.849327      536.391532
        11        15        16     1      103.531944      553.400524
        11        15        44     1      111.068626      475.836438
        12        11        15     1      103.849327      536.391532
        12        11        39     1      110.495773      465.529246
        12        13        14     1      111.329147      405.322861
        12        13        17     1      123.340477      462.896881
        13        12        40     1      110.442825      438.278756
        13        12        41     1      110.442825      438.278756
        13        14        15     1      103.395767      529.540756
        13        14        42     1      110.442825      438.278692
        13        14        43     1      110.442825      438.278692
        13        17        18     1      122.660179      633.261705
        13        17        19     1      116.994202      443.329007
        14        13        17     1      123.340477      462.896881
        14        15        16     1      115.967918      490.766039
        14        15        44     1      110.495773      465.529246
        15        11        39     1      111.068642      475.836438
        15        14        42     1      112.216675      453.127085
        15        14        43     1      112.216675      453.127085
        15        16        45     1      112.134521      456.886371
        15        16        46     1      112.134521      456.886371
        16        15        44     1      110.411415      471.837167
        17        19        20     1      118.283775      555.669624
        17        19        24     1      123.653770      542.711456
        18        17        19     1      120.058716      510.203961
        19        20        21     1      120.929276      709.780589
        19        20        47     1      118.721512      375.351488
        19        24        23     1      120.825272      654.574721
        19        24        25     1      120.702881      463.087994
        20        19        24     1      118.203812      702.883909
        20        21        22     1      119.716652      720.510260
        20        21        48     1      120.054466      428.029629
        21        20        47     1      120.342384      416.611413
        21        22        23     1      119.910622      725.987460
        21        22        49     1      120.303955      429.770302
        22        21        48     1      120.360428      425.138413
        22        23        24     1      119.877457      682.600102
        22        23        50     1      121.091797      419.795539
        23        22        49     1      119.799606      433.995513
        23        24        25     1      118.023056      539.300209
        24        23        50     1      118.963524      415.235346
        24        25        26     1      122.111572      518.525707
        24        25        29     1      122.111572      518.525739
        25        26        27     1      103.763977      481.378693
        25        29        28     1      103.763977      481.378757
        26        25        29     1      115.024330      214.892174
        26        27        28     1      108.709312      295.765725
        26        27        51     1      120.742882      391.074016
        27        28        29     1      108.709312      295.765661
        27        28        52     1      130.286758      343.611766
        28        27        51     1      130.286758      343.611766
        29        28        52     1      120.742882      391.074016
        30         1        31     1      108.389893      359.969498
        30         1        32     1      108.389893      359.969498
        31         1        32     1      108.389893      359.969498
        34         5        35     1      108.389893      359.969498
        34         5        36     1      108.389893      359.969498
        35         5        36     1      108.389893      359.969498
        37        10        38     1      107.788414      347.454335
        40        12        41     1      107.816490      348.007916
        42        14        43     1      107.816490      348.007948
        45        16        46     1      107.788414      347.454335

[ dihedrals ] ; propers for gromacs 4.5 or higher, use funct 9
;       ai        aj        ak        al funct           phase               k        pn
         1         2         3         4     9        0.000000        0.256556         1
         1         2         3         4     9      180.000000       13.179428         2
         1         2         3         4     9        0.000000       -0.097633         3
         1         2         3         4     9      180.000000       -0.317869         4
         1         2         3        33     9        0.000000       -0.223957         1
         1         2         3        33     9      180.000000       11.375068         2
         1         2         3        33     9        0.000000       -0.534831         3
         1         2         3        33     9      180.000000        0.134009         4
         1         2         8         7     9        0.000000       -0.024262         1
         1         2         8         7     9      180.000000       17.595210         2
         1         2         8         7     9        0.000000        0.133711         3
         1         2         8         7     9      180.000000       -0.526295         4
         2         3         4         5     9        0.000000        0.256556         1
         2         3         4         5     9      180.000000       13.179428         2
         2         3         4         5     9        0.000000       -0.097633         3
         2         3         4         5     9      180.000000       -0.317869         4
         2         3         4         6     9        0.000000       -0.062248         1
         2         3         4         6     9      180.000000       14.568157         2
         2         3         4         6     9        0.000000       -0.276619         3
         2         3         4         6     9      180.000000       -0.509287         4
         2         8         7         6     9        0.000000        0.513201         1
         2         8         7         6     9      180.000000        9.191428         2
         2         8         7         6     9        0.000000        0.738957         3
         2         8         7         6     9      180.000000       -0.519149         4
         2         8         7         9     9        0.000000        1.229502         1
         2         8         7         9     9      180.000000       16.103329         2
         2         8         7         9     9        0.000000        0.664456         3
         2         8         7         9     9      180.000000       -1.018199         4
         3         2         1        30     9        0.000000       -0.025287         1
         3         2         1        30     9      180.000000       -0.035803         2
         3         2         1        30     9        0.000000       -0.089579         3
         3         2         1        30     9      180.000000        0.005712         4
         3         2         1        31     9        0.000000       -0.025287         1
         3         2         1        31     9      180.000000       -0.035803         2
         3         2         1        31     9        0.000000       -0.089579         3
         3         2         1        31     9      180.000000        0.005712         4
         3         2         1        32     9        0.000000       -0.025287         1
         3         2         1        32     9      180.000000       -0.035803         2
         3         2         1        32     9        0.000000       -0.089579         3
         3         2         1        32     9      180.000000        0.005712         4
         3         2         8         7     9        0.000000       -0.379284         1
         3         2         8         7     9      180.000000       19.341467         2
         3         2         8         7     9        0.000000       -1.106329         3
         3         2         8         7     9      180.000000       -0.500796         4
         3         4         5        34     9        0.000000       -0.025287         1
         3         4         5        34     9      180.000000       -0.035803         2
         3         4         5        34     9        0.000000       -0.089579         3
         3         4         5        34     9      180.000000        0.005712         4
         3         4         5        35     9        0.000000       -0.025287         1
         3         4         5        35     9      180.000000       -0.035803         2
         3         4         5        35     9        0.000000       -0.089579         3
         3         4         5        35     9      180.000000        0.005712         4
         3         4         5        36     9        0.000000       -0.025287         1
         3         4         5        36     9      180.000000       -0.035803         2
         3         4         5        36     9        0.000000       -0.089579         3
         3         4         5        36     9      180.000000        0.005712         4
         3         4         6         7     9        0.000000       -0.379284         1
         3         4         6         7     9      180.000000       19.341467         2
         3         4         6         7     9        0.000000       -1.106329         3
         3         4         6         7     9      180.000000       -0.500796         4
         4         3         2         8     9        0.000000       -0.062248         1
         4         3         2         8     9      180.000000       14.568157         2
         4         3         2         8     9        0.000000       -0.276619         3
         4         3         2         8     9      180.000000       -0.509287         4
         4         6         7         8     9        0.000000        0.513201         1
         4         6         7         8     9      180.000000        9.191428         2
         4         6         7         8     9        0.000000        0.738957         3
         4         6         7         8     9      180.000000       -0.519149         4
         4         6         7         9     9        0.000000        1.229502         1
         4         6         7         9     9      180.000000       16.103329         2
         4         6         7         9     9        0.000000        0.664456         3
         4         6         7         9     9      180.000000       -1.018199         4
         5         4         3        33     9        0.000000       -0.223957         1
         5         4         3        33     9      180.000000       11.375068         2
         5         4         3        33     9        0.000000       -0.534831         3
         5         4         3        33     9      180.000000        0.134009         4
         5         4         6         7     9        0.000000       -0.024262         1
         5         4         6         7     9      180.000000       17.595210         2
         5         4         6         7     9        0.000000        0.133711         3
         5         4         6         7     9      180.000000       -0.526295         4
         6         4         3        33     9        0.000000       -0.034010         1
         6         4         3        33     9      180.000000       12.223298         2
         6         4         3        33     9        0.000000       -0.267637         3
         6         4         3        33     9      180.000000       -0.072661         4
         6         4         5        34     9        0.000000        0.003881         1
         6         4         5        34     9      180.000000       -0.062736         2
         6         4         5        34     9        0.000000        0.023445         3
         6         4         5        34     9      180.000000       -0.007650         4
         6         4         5        35     9        0.000000        0.003881         1
         6         4         5        35     9      180.000000       -0.062736         2
         6         4         5        35     9        0.000000        0.023445         3
         6         4         5        35     9      180.000000       -0.007650         4
         6         4         5        36     9        0.000000        0.003881         1
         6         4         5        36     9      180.000000       -0.062736         2
         6         4         5        36     9        0.000000        0.023445         3
         6         4         5        36     9      180.000000       -0.007650         4
         6         7         9        10     9        0.000000        0.747629         1
         6         7         9        10     9      180.000000        9.366862         2
         6         7         9        10     9        0.000000       -0.095722         3
         6         7         9        10     9      180.000000       -1.018207         4
         6         7         9        16     9        0.000000        0.747628         1
         6         7         9        16     9      180.000000        9.366863         2
         6         7         9        16     9        0.000000       -0.095722         3
         6         7         9        16     9      180.000000       -1.018207         4
         7         9        10        11     9        0.000000       -3.777482         1
         7         9        10        11     9      180.000000       -0.445033         2
         7         9        10        11     9        0.000000        0.410579         3
         7         9        10        11     9      180.000000        0.178916         4
         7         9        10        37     9        0.000000       -0.010161         1
         7         9        10        37     9      180.000000       -0.080809         2
         7         9        10        37     9        0.000000        0.536714         3
         7         9        10        37     9      180.000000       -0.022063         4
         7         9        10        38     9        0.000000       -0.010161         1
         7         9        10        38     9      180.000000       -0.080809         2
         7         9        10        38     9        0.000000        0.536714         3
         7         9        10        38     9      180.000000       -0.022063         4
         7         9        16        15     9        0.000000       -3.777482         1
         7         9        16        15     9      180.000000       -0.445032         2
         7         9        16        15     9        0.000000        0.410579         3
         7         9        16        15     9      180.000000        0.178916         4
         7         9        16        45     9        0.000000       -0.010160         1
         7         9        16        45     9      180.000000       -0.080811         2
         7         9        16        45     9        0.000000        0.536714         3
         7         9        16        45     9      180.000000       -0.022063         4
         7         9        16        46     9        0.000000       -0.010160         1
         7         9        16        46     9      180.000000       -0.080811         2
         7         9        16        46     9        0.000000        0.536714         3
         7         9        16        46     9      180.000000       -0.022063         4
         8         2         1        30     9        0.000000        0.003881         1
         8         2         1        30     9      180.000000       -0.062736         2
         8         2         1        30     9        0.000000        0.023445         3
         8         2         1        30     9      180.000000       -0.007650         4
         8         2         1        31     9        0.000000        0.003881         1
         8         2         1        31     9      180.000000       -0.062736         2
         8         2         1        31     9        0.000000        0.023445         3
         8         2         1        31     9      180.000000       -0.007650         4
         8         2         1        32     9        0.000000        0.003881         1
         8         2         1        32     9      180.000000       -0.062736         2
         8         2         1        32     9        0.000000        0.023445         3
         8         2         1        32     9      180.000000       -0.007650         4
         8         2         3        33     9        0.000000       -0.034010         1
         8         2         3        33     9      180.000000       12.223298         2
         8         2         3        33     9        0.000000       -0.267637         3
         8         2         3        33     9      180.000000       -0.072661         4
         8         7         9        10     9        0.000000        0.747629         1
         8         7         9        10     9      180.000000        9.366862         2
         8         7         9        10     9        0.000000       -0.095722         3
         8         7         9        10     9      180.000000       -1.018207         4
         8         7         9        16     9        0.000000        0.747628         1
         8         7         9        16     9      180.000000        9.366863         2
         8         7         9        16     9        0.000000       -0.095722         3
         8         7         9        16     9      180.000000       -1.018207         4
         9        10        11        12     9        0.000000        0.141091         1
         9        10        11        12     9      180.000000       -1.554592         2
         9        10        11        12     9        0.000000        0.129275         3
         9        10        11        12     9      180.000000        0.187854         4
         9        10        11        15     9        0.000000       -3.183876         1
         9        10        11        15     9      180.000000       11.770762         2
         9        10        11        15     9        0.000000       -0.669596         3
         9        10        11        15     9      180.000000       -2.371235         4
         9        10        11        39     9        0.000000        3.046272         1
         9        10        11        39     9      180.000000       -0.789547         2
         9        10        11        39     9        0.000000       -0.188589         3
         9        10        11        39     9      180.000000        0.438256         4
         9        16        15        11     9        0.000000       -3.183875         1
         9        16        15        11     9      180.000000       11.770769         2
         9        16        15        11     9        0.000000       -0.669596         3
         9        16        15        11     9      180.000000       -2.371236         4
         9        16        15        14     9        0.000000        0.141092         1
         9        16        15        14     9      180.000000       -1.554592         2
         9        16        15        14     9        0.000000        0.129275         3
         9        16        15        14     9      180.000000        0.187854         4
         9        16        15        44     9        0.000000        3.046268         1
         9        16        15        44     9      180.000000       -0.789546         2
         9        16        15        44     9        0.000000       -0.188588         3
         9        16        15        44     9      180.000000        0.438255         4
        10         9        16        15     9        0.000000       -0.515520         1
        10         9        16        15     9      180.000000        0.695785         2
        10         9        16        15     9        0.000000        0.374724         3
        10         9        16        15     9      180.000000       -0.306280         4
        10         9        16        45     9        0.000000       -0.040238         1
        10         9        16        45     9      180.000000       -0.063463         2
        10         9        16        45     9        0.000000        0.343610         3
        10         9        16        45     9      180.000000        0.107466         4
        10         9        16        46     9        0.000000       -0.040238         1
        10         9        16        46     9      180.000000       -0.063463         2
        10         9        16        46     9        0.000000        0.343610         3
        10         9        16        46     9      180.000000        0.107466         4
        10        11        12        13     9        0.000000       -0.410988         1
        10        11        12        13     9      180.000000       -1.385797         2
        10        11        12        13     9        0.000000        0.136984         3
        10        11        12        13     9      180.000000        0.093039         4
        10        11        12        40     9        0.000000       -0.090271         1
        10        11        12        40     9      180.000000        0.043314         2
        10        11        12        40     9        0.000000        0.181102         3
        10        11        12        40     9      180.000000        0.056845         4
        10        11        12        41     9        0.000000       -0.090271         1
        10        11        12        41     9      180.000000        0.043314         2
        10        11        12        41     9        0.000000        0.181102         3
        10        11        12        41     9      180.000000        0.056845         4
        10        11        15        14     9        0.000000       -1.429697         1
        10        11        15        14     9      180.000000       -0.955407         2
        10        11        15        14     9        0.000000        0.546147         3
        10        11        15        14     9      180.000000       -0.724521         4
        10        11        15        16     9        0.000000       -1.723216         1
        10        11        15        16     9      180.000000       -1.104300         2
        10        11        15        16     9        0.000000        0.465854         3
        10        11        15        16     9      180.000000       -0.749204         4
        10        11        15        44     9        0.000000        0.196400         1
        10        11        15        44     9      180.000000        0.124290         2
        10        11        15        44     9        0.000000        0.308843         3
        10        11        15        44     9      180.000000        0.285300         4
        11        10         9        16     9        0.000000       -0.515520         1
        11        10         9        16     9      180.000000        0.695787         2
        11        10         9        16     9        0.000000        0.374724         3
        11        10         9        16     9      180.000000       -0.306281         4
        11        12        13        14     9        0.000000       -0.115320         1
        11        12        13        14     9      180.000000       -0.195851         2
        11        12        13        14     9        0.000000        0.225772         3
        11        12        13        14     9      180.000000       -0.049084         4
        11        12        13        17     9        0.000000       -1.003418         1
        11        12        13        17     9      180.000000       -0.740189         2
        11        12        13        17     9        0.000000        0.087816         3
        11        12        13        17     9      180.000000        0.171318         4
        11        15        14        13     9        0.000000       -2.854021         1
        11        15        14        13     9      180.000000        7.702166         2
        11        15        14        13     9        0.000000       -0.708712         3
        11        15        14        13     9      180.000000       -1.169470         4
        11        15        14        42     9        0.000000        0.022483         1
        11        15        14        42     9      180.000000       -0.185436         2
        11        15        14        42     9        0.000000       -0.302149         3
        11        15        14        42     9      180.000000        0.229395         4
        11        15        14        43     9        0.000000        0.022483         1
        11        15        14        43     9      180.000000       -0.185436         2
        11        15        14        43     9        0.000000       -0.302149         3
        11        15        14        43     9      180.000000        0.229395         4
        11        15        16        45     9        0.000000        0.005453         1
        11        15        16        45     9      180.000000       -0.187956         2
        11        15        16        45     9        0.000000       -0.253493         3
        11        15        16        45     9      180.000000        0.289446         4
        11        15        16        46     9        0.000000        0.005453         1
        11        15        16        46     9      180.000000       -0.187956         2
        11        15        16        46     9        0.000000       -0.253493         3
        11        15        16        46     9      180.000000        0.289446         4
        12        11        10        37     9        0.000000       -0.150868         1
        12        11        10        37     9      180.000000        0.072012         2
        12        11        10        37     9        0.000000        0.214875         3
        12        11        10        37     9      180.000000        0.045180         4
        12        11        10        38     9        0.000000       -0.150868         1
        12        11        10        38     9      180.000000        0.072012         2
        12        11        10        38     9        0.000000        0.214875         3
        12        11        10        38     9      180.000000        0.045180         4
        12        11        15        14     9        0.000000       -0.903494         1
        12        11        15        14     9      180.000000       -0.930898         2
        12        11        15        14     9        0.000000        0.568820         3
        12        11        15        14     9      180.000000       -0.686260         4
        12        11        15        16     9        0.000000       -1.429699         1
        12        11        15        16     9      180.000000       -0.955405         2
        12        11        15        16     9        0.000000        0.546147         3
        12        11        15        16     9      180.000000       -0.724522         4
        12        11        15        44     9        0.000000       -0.022164         1
        12        11        15        44     9      180.000000        0.142975         2
        12        11        15        44     9        0.000000        0.388150         3
        12        11        15        44     9      180.000000        0.197015         4
        12        13        14        15     9        0.000000       -0.115321         1
        12        13        14        15     9      180.000000       -0.195851         2
        12        13        14        15     9        0.000000        0.225772         3
        12        13        14        15     9      180.000000       -0.049084         4
        12        13        14        42     9        0.000000       -0.036132         1
        12        13        14        42     9      180.000000       -0.000356         2
        12        13        14        42     9        0.000000        0.119650         3
        12        13        14        42     9      180.000000        0.062908         4
        12        13        14        43     9        0.000000       -0.036132         1
        12        13        14        43     9      180.000000       -0.000356         2
        12        13        14        43     9        0.000000        0.119650         3
        12        13        14        43     9      180.000000        0.062908         4
        12        13        17        18     9        0.000000       -1.692529         1
        12        13        17        18     9      180.000000       13.640633         2
        12        13        17        18     9        0.000000       -1.078417         3
        12        13        17        18     9      180.000000       -0.220067         4
        12        13        17        19     9        0.000000        5.718049         1
        12        13        17        19     9      180.000000       11.601566         2
        12        13        17        19     9        0.000000        1.589702         3
        12        13        17        19     9      180.000000       -0.447618         4
        13        12        11        15     9        0.000000       -2.854020         1
        13        12        11        15     9      180.000000        7.702162         2
        13        12        11        15     9        0.000000       -0.708712         3
        13        12        11        15     9      180.000000       -1.169470         4
        13        12        11        39     9        0.000000        0.989397         1
        13        12        11        39     9      180.000000       -0.387240         2
        13        12        11        39     9        0.000000       -0.055240         3
        13        12        11        39     9      180.000000        0.255011         4
        13        14        15        16     9        0.000000       -0.410988         1
        13        14        15        16     9      180.000000       -1.385796         2
        13        14        15        16     9        0.000000        0.136984         3
        13        14        15        16     9      180.000000        0.093039         4
        13        14        15        44     9        0.000000        0.989397         1
        13        14        15        44     9      180.000000       -0.387239         2
        13        14        15        44     9        0.000000       -0.055240         3
        13        14        15        44     9      180.000000        0.255012         4
        13        17        19        20     9        0.000000        1.650201         1
        13        17        19        20     9      180.000000        3.546675         2
        13        17        19        20     9        0.000000        0.198618         3
        13        17        19        20     9      180.000000        0.056660         4
        13        17        19        24     9        0.000000       -0.630893         1
        13        17        19        24     9      180.000000        4.029216         2
        13        17        19        24     9        0.000000       -0.802652         3
        13        17        19        24     9      180.000000        0.154398         4
        14        13        12        40     9        0.000000       -0.036132         1
        14        13        12        40     9      180.000000       -0.000356         2
        14        13        12        40     9        0.000000        0.119649         3
        14        13        12        40     9      180.000000        0.062908         4
        14        13        12        41     9        0.000000       -0.036132         1
        14        13        12        41     9      180.000000       -0.000356         2
        14        13        12        41     9        0.000000        0.119649         3
        14        13        12        41     9      180.000000        0.062908         4
        14        13        17        18     9        0.000000       -1.692529         1
        14        13        17        18     9      180.000000       13.640631         2
        14        13        17        18     9        0.000000       -1.078416         3
        14        13        17        18     9      180.000000       -0.220067         4
        14        13        17        19     9        0.000000        5.718049         1
        14        13        17        19     9      180.000000       11.601565         2
        14        13        17        19     9        0.000000        1.589703         3
        14        13        17        19     9      180.000000       -0.447618         4
        14        15        11        39     9        0.000000       -0.022164         1
        14        15        11        39     9      180.000000        0.142976         2
        14        15        11        39     9        0.000000        0.388149         3
        14        15        11        39     9      180.000000        0.197014         4
        14        15        16        45     9        0.000000       -0.150868         1
        14        15        16        45     9      180.000000        0.072012         2
        14        15        16        45     9        0.000000        0.214875         3
        14        15        16        45     9      180.000000        0.045180         4
        14        15        16        46     9        0.000000       -0.150868         1
        14        15        16        46     9      180.000000        0.072012         2
        14        15        16        46     9        0.000000        0.214875         3
        14        15        16        46     9      180.000000        0.045180         4
        15        11        10        37     9        0.000000        0.005454         1
        15        11        10        37     9      180.000000       -0.187956         2
        15        11        10        37     9        0.000000       -0.253494         3
        15        11        10        37     9      180.000000        0.289446         4
        15        11        10        38     9        0.000000        0.005454         1
        15        11        10        38     9      180.000000       -0.187956         2
        15        11        10        38     9        0.000000       -0.253494         3
        15        11        10        38     9      180.000000        0.289446         4
        15        11        12        40     9        0.000000        0.022483         1
        15        11        12        40     9      180.000000       -0.185435         2
        15        11        12        40     9        0.000000       -0.302149         3
        15        11        12        40     9      180.000000        0.229395         4
        15        11        12        41     9        0.000000        0.022483         1
        15        11        12        41     9      180.000000       -0.185435         2
        15        11        12        41     9        0.000000       -0.302149         3
        15        11        12        41     9      180.000000        0.229395         4
        15        14        13        17     9        0.000000       -1.003417         1
        15        14        13        17     9      180.000000       -0.740189         2
        15        14        13        17     9        0.000000        0.087816         3
        15        14        13        17     9      180.000000        0.171319         4
        16         9        10        37     9        0.000000       -0.040238         1
        16         9        10        37     9      180.000000       -0.063462         2
        16         9        10        37     9        0.000000        0.343610         3
        16         9        10        37     9      180.000000        0.107466         4
        16         9        10        38     9        0.000000       -0.040238         1
        16         9        10        38     9      180.000000       -0.063462         2
        16         9        10        38     9        0.000000        0.343610         3
        16         9        10        38     9      180.000000        0.107466         4
        16        15        11        39     9        0.000000        0.196399         1
        16        15        11        39     9      180.000000        0.124289         2
        16        15        11        39     9        0.000000        0.308842         3
        16        15        11        39     9      180.000000        0.285300         4
        16        15        14        42     9        0.000000       -0.090272         1
        16        15        14        42     9      180.000000        0.043313         2
        16        15        14        42     9        0.000000        0.181102         3
        16        15        14        42     9      180.000000        0.056845         4
        16        15        14        43     9        0.000000       -0.090272         1
        16        15        14        43     9      180.000000        0.043313         2
        16        15        14        43     9        0.000000        0.181102         3
        16        15        14        43     9      180.000000        0.056845         4
        17        13        12        40     9        0.000000        0.041871         1
        17        13        12        40     9      180.000000        0.087101         2
        17        13        12        40     9        0.000000        0.094211         3
        17        13        12        40     9      180.000000       -0.011430         4
        17        13        12        41     9        0.000000        0.041871         1
        17        13        12        41     9      180.000000        0.087101         2
        17        13        12        41     9        0.000000        0.094211         3
        17        13        12        41     9      180.000000       -0.011430         4
        17        13        14        42     9        0.000000        0.041872         1
        17        13        14        42     9      180.000000        0.087101         2
        17        13        14        42     9        0.000000        0.094211         3
        17        13        14        42     9      180.000000       -0.011430         4
        17        13        14        43     9        0.000000        0.041872         1
        17        13        14        43     9      180.000000        0.087101         2
        17        13        14        43     9        0.000000        0.094211         3
        17        13        14        43     9      180.000000       -0.011430         4
        17        19        20        21     9        0.000000       -0.027379         1
        17        19        20        21     9      180.000000       15.437489         2
        17        19        20        21     9        0.000000       -0.251913         3
        17        19        20        21     9      180.000000       -0.367272         4
        17        19        20        47     9        0.000000       -0.042153         1
        17        19        20        47     9      180.000000       12.572753         2
        17        19        20        47     9        0.000000       -0.413955         3
        17        19        20        47     9      180.000000        0.126752         4
        17        19        24        23     9        0.000000       -0.371493         1
        17        19        24        23     9      180.000000       10.972291         2
        17        19        24        23     9        0.000000       -0.350079         3
        17        19        24        23     9      180.000000       -0.220428         4
        17        19        24        25     9        0.000000       -0.032901         1
        17        19        24        25     9      180.000000       15.287444         2
        17        19        24        25     9        0.000000        0.453880         3
        17        19        24        25     9      180.000000       -0.891142         4
        18        17        19        20     9        0.000000        0.945040         1
        18        17        19        20     9      180.000000        1.383215         2
        18        17        19        20     9        0.000000        0.517828         3
        18        17        19        20     9      180.000000       -0.010183         4
        18        17        19        24     9        0.000000       -7.436123         1
        18        17        19        24     9      180.000000        1.633520         2
        18        17        19        24     9        0.000000        0.086308         3
        18        17        19        24     9      180.000000       -0.112344         4
        19        20        21        22     9        0.000000       -0.066803         1
        19        20        21        22     9      180.000000       19.088307         2
        19        20        21        22     9        0.000000       -1.589592         3
        19        20        21        22     9      180.000000       -0.542591         4
        19        20        21        48     9        0.000000       -0.069602         1
        19        20        21        48     9      180.000000       15.104819         2
        19        20        21        48     9        0.000000       -0.713898         3
        19        20        21        48     9      180.000000       -0.009031         4
        19        24        23        22     9        0.000000       -0.170176         1
        19        24        23        22     9      180.000000       17.460332         2
        19        24        23        22     9        0.000000       -1.464118         3
        19        24        23        22     9      180.000000       -0.199272         4
        19        24        23        50     9        0.000000        0.159573         1
        19        24        23        50     9      180.000000       13.693788         2
        19        24        23        50     9        0.000000       -0.589588         3
        19        24        23        50     9      180.000000        0.189293         4
        19        24        25        26     9        0.000000       -0.755830         1
        19        24        25        26     9      180.000000        3.519796         2
        19        24        25        26     9        0.000000        0.214922         3
        19        24        25        26     9      180.000000       -0.135629         4
        19        24        25        29     9        0.000000       -0.755829         1
        19        24        25        29     9      180.000000        3.519796         2
        19        24        25        29     9        0.000000        0.214922         3
        19        24        25        29     9      180.000000       -0.135630         4
        20        19        24        23     9        0.000000        0.042227         1
        20        19        24        23     9      180.000000       16.107155         2
        20        19        24        23     9        0.000000       -1.201273         3
        20        19        24        23     9      180.000000       -0.244691         4
        20        19        24        25     9        0.000000        0.210958         1
        20        19        24        25     9      180.000000       17.034124         2
        20        19        24        25     9        0.000000       -0.021153         3
        20        19        24        25     9      180.000000       -0.525328         4
        20        21        22        23     9        0.000000        0.090067         1
        20        21        22        23     9      180.000000       18.235685         2
        20        21        22        23     9        0.000000       -1.721187         3
        20        21        22        23     9      180.000000       -0.285857         4
        20        21        22        49     9        0.000000        0.097961         1
        20        21        22        49     9      180.000000       14.251672         2
        20        21        22        49     9        0.000000       -0.777296         3
        20        21        22        49     9      180.000000        0.094337         4
        21        20        19        24     9        0.000000       -0.044523         1
        21        20        19        24     9      180.000000       18.664008         2
        21        20        19        24     9        0.000000       -1.485767         3
        21        20        19        24     9      180.000000       -0.526021         4
        21        22        23        24     9        0.000000       -0.120267         1
        21        22        23        24     9      180.000000       18.673179         2
        21        22        23        24     9        0.000000       -1.716147         3
        21        22        23        24     9      180.000000       -0.384625         4
        21        22        23        50     9        0.000000        0.085677         1
        21        22        23        50     9      180.000000       14.918019         2
        21        22        23        50     9        0.000000       -0.710301         3
        21        22        23        50     9      180.000000        0.119562         4
        22        21        20        47     9        0.000000        0.071162         1
        22        21        20        47     9      180.000000       14.982002         2
        22        21        20        47     9        0.000000       -0.594743         3
        22        21        20        47     9      180.000000        0.103059         4
        22        23        24        25     9        0.000000        0.305357         1
        22        23        24        25     9      180.000000       18.493458         2
        22        23        24        25     9        0.000000        0.134376         3
        22        23        24        25     9      180.000000       -0.353417         4
        23        22        21        48     9        0.000000        0.151239         1
        23        22        21        48     9      180.000000       14.237390         2
        23        22        21        48     9        0.000000       -0.684658         3
        23        22        21        48     9      180.000000        0.111169         4
        23        24        25        26     9        0.000000        0.672668         1
        23        24        25        26     9      180.000000        3.024753         2
        23        24        25        26     9        0.000000       -0.338841         3
        23        24        25        26     9      180.000000        0.045438         4
        23        24        25        29     9        0.000000        0.672668         1
        23        24        25        29     9      180.000000        3.024753         2
        23        24        25        29     9        0.000000       -0.338841         3
        23        24        25        29     9      180.000000        0.045438         4
        24        19        20        47     9        0.000000        0.264071         1
        24        19        20        47     9      180.000000       14.318261         2
        24        19        20        47     9        0.000000       -0.338334         3
        24        19        20        47     9      180.000000        0.031304         4
        24        23        22        49     9        0.000000        0.022088         1
        24        23        22        49     9      180.000000       14.877236         2
        24        23        22        49     9        0.000000       -0.647041         3
        24        23        22        49     9      180.000000        0.019411         4
        24        25        26        27     9        0.000000        0.662640         1
        24        25        26        27     9      180.000000       14.683340         2
        24        25        26        27     9        0.000000        0.387593         3
        24        25        26        27     9      180.000000       -0.203718         4
        24        25        29        28     9        0.000000        0.662642         1
        24        25        29        28     9      180.000000       14.683340         2
        24        25        29        28     9        0.000000        0.387593         3
        24        25        29        28     9      180.000000       -0.203718         4
        25        24        23        50     9        0.000000        0.197441         1
        25        24        23        50     9      180.000000       14.482548         2
        25        24        23        50     9        0.000000       -0.014551         3
        25        24        23        50     9      180.000000        0.189878         4
        25        26        27        28     9        0.000000       -0.112462         1
        25        26        27        28     9      180.000000       41.052444         2
        25        26        27        28     9        0.000000       -5.890513         3
        25        26        27        28     9      180.000000       -0.008107         4
        25        26        27        51     9        0.000000        1.292619         1
        25        26        27        51     9      180.000000       26.526210         2
        25        26        27        51     9        0.000000       -0.133154         3
        25        26        27        51     9      180.000000       -0.139937         4
        25        29        28        27     9        0.000000       -0.112462         1
        25        29        28        27     9      180.000000       41.052444         2
        25        29        28        27     9        0.000000       -5.890513         3
        25        29        28        27     9      180.000000       -0.008108         4
        25        29        28        52     9        0.000000        1.292620         1
        25        29        28        52     9      180.000000       26.526210         2
        25        29        28        52     9        0.000000       -0.133154         3
        25        29        28        52     9      180.000000       -0.139937         4
        26        25        29        28     9        0.000000       -0.219543         1
        26        25        29        28     9      180.000000       33.423021         2
        26        25        29        28     9        0.000000       -5.623655         3
        26        25        29        28     9      180.000000        0.093808         4
        26        27        28        29     9        0.000000       -0.646394         1
        26        27        28        29     9      180.000000       33.879568         2
        26        27        28        29     9        0.000000       -7.997882         3
        26        27        28        29     9      180.000000       -0.068922         4
        26        27        28        52     9        0.000000        0.399472         1
        26        27        28        52     9      180.000000       15.777787         2
        26        27        28        52     9        0.000000       -0.622625         3
        26        27        28        52     9      180.000000       -0.473181         4
        27        26        25        29     9        0.000000       -0.219545         1
        27        26        25        29     9      180.000000       33.423017         2
        27        26        25        29     9        0.000000       -5.623654         3
        27        26        25        29     9      180.000000        0.093808         4
        29        28        27        51     9        0.000000        0.399471         1
        29        28        27        51     9      180.000000       15.777787         2
        29        28        27        51     9        0.000000       -0.622625         3
        29        28        27        51     9      180.000000       -0.473181         4
        37        10        11        39     9        0.000000       -0.140741         1
        37        10        11        39     9      180.000000       -0.009947         2
        37        10        11        39     9        0.000000        0.295617         3
        37        10        11        39     9      180.000000       -0.018107         4
        38        10        11        39     9        0.000000       -0.140741         1
        38        10        11        39     9      180.000000       -0.009947         2
        38        10        11        39     9        0.000000        0.295617         3
        38        10        11        39     9      180.000000       -0.018107         4
        39        11        12        40     9        0.000000       -0.086594         1
        39        11        12        40     9      180.000000        0.026398         2
        39        11        12        40     9        0.000000        0.269152         3
        39        11        12        40     9      180.000000       -0.020189         4
        39        11        12        41     9        0.000000       -0.086594         1
        39        11        12        41     9      180.000000        0.026398         2
        39        11        12        41     9        0.000000        0.269152         3
        39        11        12        41     9      180.000000       -0.020189         4
        39        11        15        44     9        0.000000        0.223574         1
        39        11        15        44     9      180.000000       -0.077956         2
        39        11        15        44     9        0.000000        0.353694         3
        39        11        15        44     9      180.000000       -0.057173         4
        42        14        15        44     9        0.000000       -0.086595         1
        42        14        15        44     9      180.000000        0.026398         2
        42        14        15        44     9        0.000000        0.269152         3
        42        14        15        44     9      180.000000       -0.020189         4
        43        14        15        44     9        0.000000       -0.086595         1
        43        14        15        44     9      180.000000        0.026398         2
        43        14        15        44     9        0.000000        0.269152         3
        43        14        15        44     9      180.000000       -0.020189         4
        44        15        16        45     9        0.000000       -0.140741         1
        44        15        16        45     9      180.000000       -0.009947         2
        44        15        16        45     9        0.000000        0.295617         3
        44        15        16        45     9      180.000000       -0.018107         4
        44        15        16        46     9        0.000000       -0.140741         1
        44        15        16        46     9      180.000000       -0.009947         2
        44        15        16        46     9        0.000000        0.295617         3
        44        15        16        46     9      180.000000       -0.018107         4
        47        20        21        48     9        0.000000       -0.126709         1
        47        20        21        48     9      180.000000       12.268754         2
        47        20        21        48     9        0.000000       -0.643023         3
        47        20        21        48     9      180.000000        0.196245         4
        48        21        22        49     9        0.000000       -0.180837         1
        48        21        22        49     9      180.000000       10.856495         2
        48        21        22        49     9        0.000000       -0.445073         3
        48        21        22        49     9      180.000000        0.171909         4
        49        22        23        50     9        0.000000       -0.183387         1
        49        22        23        50     9      180.000000       12.330013         2
        49        22        23        50     9        0.000000       -0.897350         3
        49        22        23        50     9      180.000000        0.305390         4
        51        27        28        52     9        0.000000       -0.304766         1
        51        27        28        52     9      180.000000        8.321253         2
        51        27        28        52     9        0.000000       -0.141498         3
        51        27        28        52     9      180.000000        0.273252         4

[ dihedrals ] ; impropers
;       ai        aj        ak        al funct           phase               k        pn
         2         1         3         8     4      180.000000       21.793920         2
         2         3         8         1     4      180.000000       21.793920         2
         2         8         1         3     4      180.000000       21.793920         2
         4         3         5         6     4      180.000000       21.793920         2
         4         5         6         3     4      180.000000       21.793920         2
         4         6         3         5     4      180.000000       21.793920         2
         7         6         8         9     4      180.000000       27.893333         2
         7         8         9         6     4      180.000000       27.893333         2
         7         9         6         8     4      180.000000       27.893333         2
        20        19        21        47     4      180.000000        0.167034         2
        20        21        47        19     4      180.000000        0.167034         2
        20        47        19        21     4      180.000000        0.167034         2
        21        20        22        48     4      180.000000        2.217330         2
        21        22        48        20     4      180.000000        2.217330         2
        21        48        20        22     4      180.000000        2.217330         2
        22        21        23        49     4      180.000000        0.586338         2
        22        23        49        21     4      180.000000        0.586338         2
        22        49        21        23     4      180.000000        0.586338         2
        23        22        24        50     4      180.000000        0.325905         2
        23        24        50        22     4      180.000000        0.325905         2
        23        50        22        24     4      180.000000        0.325905         2

[ pairs ]
;       ai        aj funct
         1         4     1
         1         7     1
         1        33     1
         2         5     1
         2         6     1
         2         9     1
         3         7     1
         3        30     1
         3        31     1
         3        32     1
         3        34     1
         3        35     1
         3        36     1
         4         8     1
         4         9     1
         5         7     1
         5        33     1
         6        10     1
         6        16     1
         6        33     1
         6        34     1
         6        35     1
         6        36     1
         7        11     1
         7        15     1
         7        37     1
         7        38     1
         7        45     1
         7        46     1
         8        10     1
         8        16     1
         8        30     1
         8        31     1
         8        32     1
         8        33     1
         9        12     1
         9        14     1
         9        39     1
         9        44     1
        10        13     1
        10        14     1
        10        40     1
        10        41     1
        10        44     1
        10        45     1
        10        46     1
        11        17     1
        11        42     1
        11        43     1
        11        45     1
        11        46     1
        12        16     1
        12        18     1
        12        19     1
        12        37     1
        12        38     1
        12        42     1
        12        43     1
        12        44     1
        13        16     1
        13        20     1
        13        24     1
        13        39     1
        13        44     1
        14        18     1
        14        19     1
        14        39     1
        14        40     1
        14        41     1
        14        45     1
        14        46     1
        15        17     1
        15        37     1
        15        38     1
        15        40     1
        15        41     1
        16        37     1
        16        38     1
        16        39     1
        16        42     1
        16        43     1
        17        21     1
        17        23     1
        17        25     1
        17        40     1
        17        41     1
        17        42     1
        17        43     1
        17        47     1
        18        20     1
        18        24     1
        19        22     1
        19        26     1
        19        29     1
        19        48     1
        19        50     1
        20        23     1
        20        25     1
        20        49     1
        21        24     1
        21        50     1
        22        25     1
        22        47     1
        23        26     1
        23        29     1
        23        48     1
        24        27     1
        24        28     1
        24        47     1
        24        49     1
        25        50     1
        25        51     1
        25        52     1
        26        52     1
        29        51     1
        37        39     1
        38        39     1
        39        40     1
        39        41     1
        39        44     1
        42        44     1
        43        44     1
        44        45     1
        44        46     1
        47        48     1
        48        49     1
        49        50     1
        51        52     1
