; ITP file created by ByteFF-ML, 2025-12-06 04:46:21.240221

[ atomtypes ]
;name           bonded.type        at.num        mass        charge   ptype           sigma         epsilon
 o0bf                                   8      0.0000       0.00000       A     3.04514e-01     6.13792e-01
 c1bf                                   6      0.0000       0.00000       A     3.31327e-01     4.13248e-01
 c2bf                                   6      0.0000       0.00000       A     3.31273e-01     4.13283e-01
 c3bf                                   6      0.0000       0.00000       A     3.31521e-01     4.13918e-01
 f4bf                                   9      0.0000       0.00000       A     3.03540e-01     3.48621e-01
 c5bf                                   6      0.0000       0.00000       A     3.31463e-01     4.12491e-01
 c6bf                                   6      0.0000       0.00000       A     3.31469e-01     4.12700e-01
 c7bf                                   6      0.0000       0.00000       A     3.31436e-01     4.11484e-01
 c8bf                                   6      0.0000       0.00000       A     3.31571e-01     4.13494e-01
 n9bf                                   7      0.0000       0.00000       A     3.20910e-01     8.46558e-01
 n10bf                                  7      0.0000       0.00000       A     3.38251e-01     3.94826e-01
 c11bf                                  6      0.0000       0.00000       A     3.31301e-01     4.12308e-01
 c12bf                                  6      0.0000       0.00000       A     3.31301e-01     4.12308e-01
 n13bf                                  7      0.0000       0.00000       A     3.38251e-01     3.94826e-01
 n14bf                                  7      0.0000       0.00000       A     3.18172e-01     6.81536e-01
 c15bf                                  6      0.0000       0.00000       A     3.39727e-01     4.50795e-01
 c16bf                                  6      0.0000       0.00000       A     3.39712e-01     4.49806e-01
 c17bf                                  6      0.0000       0.00000       A     3.39585e-01     4.49212e-01
 n18bf                                  7      0.0000       0.00000       A     3.19428e-01     8.94136e-01
 c19bf                                  6      0.0000       0.00000       A     3.39585e-01     4.49212e-01
 c20bf                                  6      0.0000       0.00000       A     3.39712e-01     4.49806e-01
 c21bf                                  6      0.0000       0.00000       A     3.39727e-01     4.50797e-01
 c22bf                                  6      0.0000       0.00000       A     3.31395e-01     4.12560e-01
 n23bf                                  7      0.0000       0.00000       A     3.38548e-01     3.95686e-01
 c24bf                                  6      0.0000       0.00000       A     3.31472e-01     4.15203e-01
 c25bf                                  6      0.0000       0.00000       A     3.31244e-01     4.13090e-01
 c26bf                                  6      0.0000       0.00000       A     3.31472e-01     4.15203e-01
 n27bf                                  7      0.0000       0.00000       A     3.38548e-01     3.95686e-01
 c28bf                                  6      0.0000       0.00000       A     3.39641e-01     4.49303e-01
 f29bf                                  9      0.0000       0.00000       A     3.03419e-01     3.46760e-01
 f30bf                                  9      0.0000       0.00000       A     3.03419e-01     3.46760e-01
 f31bf                                  9      0.0000       0.00000       A     3.03419e-01     3.46760e-01
 c32bf                                  6      0.0000       0.00000       A     3.39641e-01     4.49303e-01
 f33bf                                  9      0.0000       0.00000       A     3.03419e-01     3.46760e-01
 f34bf                                  9      0.0000       0.00000       A     3.03419e-01     3.46760e-01
 f35bf                                  9      0.0000       0.00000       A     3.03419e-01     3.46760e-01
 h36bf                                  1      0.0000       0.00000       A     2.62509e-01     6.72536e-02
 h37bf                                  1      0.0000       0.00000       A     2.62495e-01     6.71945e-02
 h38bf                                  1      0.0000       0.00000       A     2.62555e-01     6.79734e-02
 h39bf                                  1      0.0000       0.00000       A     2.53897e-01     6.74946e-02
 h40bf                                  1      0.0000       0.00000       A     2.53897e-01     6.74946e-02
 h41bf                                  1      0.0000       0.00000       A     2.42171e-01     8.72571e-02
 h42bf                                  1      0.0000       0.00000       A     2.42171e-01     8.72571e-02
 h43bf                                  1      0.0000       0.00000       A     2.60149e-01     8.67575e-02
 h44bf                                  1      0.0000       0.00000       A     2.42127e-01     8.72842e-02
 h45bf                                  1      0.0000       0.00000       A     2.42127e-01     8.72842e-02
 h46bf                                  1      0.0000       0.00000       A     2.42127e-01     8.72842e-02
 h47bf                                  1      0.0000       0.00000       A     2.42127e-01     8.72842e-02
 h48bf                                  1      0.0000       0.00000       A     2.60149e-01     8.67575e-02
 h49bf                                  1      0.0000       0.00000       A     2.42171e-01     8.72571e-02
 h50bf                                  1      0.0000       0.00000       A     2.42171e-01     8.72571e-02
 h51bf                                  1      0.0000       0.00000       A     2.62599e-01     6.79399e-02

[ moleculetype ]
;name             nrexcl
 set_1_23              3

[ atoms ]
;       nr            type      resi   res      atom      cgnr      charge          mass ; qtot
         1            o0bf         1   UNL        o0         1    -0.58742       15.9990 ; qtot   -0.587
         2            c1bf         1   UNL        c1         2     0.64532       12.0110 ; qtot    0.058
         3            c2bf         1   UNL        c2         3    -0.15190       12.0110 ; qtot   -0.094
         4            c3bf         1   UNL        c3         4     0.19456       12.0110 ; qtot    0.101
         5            f4bf         1   UNL        f4         5    -0.16798       18.9980 ; qtot   -0.067
         6            c5bf         1   UNL        c5         6    -0.14840       12.0110 ; qtot   -0.216
         7            c6bf         1   UNL        c6         7    -0.06562       12.0110 ; qtot   -0.281
         8            c7bf         1   UNL        c7         8    -0.10373       12.0110 ; qtot   -0.385
         9            c8bf         1   UNL        c8         9     0.06898       12.0110 ; qtot   -0.316
        10            n9bf         1   UNL        n9        10     0.31512       14.0070 ; qtot   -0.001
        11           n10bf         1   UNL       n10        11    -0.47882       14.0070 ; qtot   -0.480
        12           c11bf         1   UNL       c11        12     0.20629       12.0110 ; qtot   -0.274
        13           c12bf         1   UNL       c12        13     0.20629       12.0110 ; qtot   -0.067
        14           n13bf         1   UNL       n13        14    -0.47882       14.0070 ; qtot   -0.546
        15           n14bf         1   UNL       n14        15    -0.41240       14.0070 ; qtot   -0.959
        16           c15bf         1   UNL       c15        16     0.11230       12.0110 ; qtot   -0.846
        17           c16bf         1   UNL       c16        17    -0.10223       12.0110 ; qtot   -0.948
        18           c17bf         1   UNL       c17        18     0.23669       12.0110 ; qtot   -0.712
        19           n18bf         1   UNL       n18        19    -0.77544       14.0070 ; qtot   -1.487
        20           c19bf         1   UNL       c19        20     0.23669       12.0110 ; qtot   -1.251
        21           c20bf         1   UNL       c20        21    -0.10223       12.0110 ; qtot   -1.353
        22           c21bf         1   UNL       c21        22     0.11230       12.0110 ; qtot   -1.240
        23           c22bf         1   UNL       c22        23     0.41309       12.0110 ; qtot   -0.827
        24           n23bf         1   UNL       n23        24    -0.20397       14.0070 ; qtot   -1.031
        25           c24bf         1   UNL       c24        25     0.05731       12.0110 ; qtot   -0.974
        26           c25bf         1   UNL       c25        26    -0.13845       12.0110 ; qtot   -1.112
        27           c26bf         1   UNL       c26        27     0.05731       12.0110 ; qtot   -1.055
        28           n27bf         1   UNL       n27        28    -0.20397       14.0070 ; qtot   -1.259
        29           c28bf         1   UNL       c28        29     0.25720       12.0110 ; qtot   -1.002
        30           f29bf         1   UNL       f29        30    -0.09476       18.9980 ; qtot   -1.097
        31           f30bf         1   UNL       f30        31    -0.09476       18.9980 ; qtot   -1.191
        32           f31bf         1   UNL       f31        32    -0.09476       18.9980 ; qtot   -1.286
        33           c32bf         1   UNL       c32        33     0.25720       12.0110 ; qtot   -1.029
        34           f33bf         1   UNL       f33        34    -0.09476       18.9980 ; qtot   -1.124
        35           f34bf         1   UNL       f34        35    -0.09476       18.9980 ; qtot   -1.219
        36           f35bf         1   UNL       f35        36    -0.09476       18.9980 ; qtot   -1.313
        37           h36bf         1   UNL       h36        37     0.14181        1.0080 ; qtot   -1.171
        38           h37bf         1   UNL       h37        38     0.12690        1.0080 ; qtot   -1.045
        39           h38bf         1   UNL       h38        39     0.14214        1.0080 ; qtot   -0.902
        40           h39bf         1   UNL       h39        40     0.05626        1.0080 ; qtot   -0.846
        41           h40bf         1   UNL       h40        41     0.05626        1.0080 ; qtot   -0.790
        42           h41bf         1   UNL       h41        42     0.06015        1.0080 ; qtot   -0.730
        43           h42bf         1   UNL       h42        43     0.06015        1.0080 ; qtot   -0.670
        44           h43bf         1   UNL       h43        44     0.07208        1.0080 ; qtot   -0.598
        45           h44bf         1   UNL       h44        45     0.05798        1.0080 ; qtot   -0.540
        46           h45bf         1   UNL       h45        46     0.05798        1.0080 ; qtot   -0.482
        47           h46bf         1   UNL       h46        47     0.05798        1.0080 ; qtot   -0.424
        48           h47bf         1   UNL       h47        48     0.05798        1.0080 ; qtot   -0.366
        49           h48bf         1   UNL       h48        49     0.07208        1.0080 ; qtot   -0.294
        50           h49bf         1   UNL       h49        50     0.06015        1.0080 ; qtot   -0.233
        51           h50bf         1   UNL       h50        51     0.06015        1.0080 ; qtot   -0.173
        52           h51bf         1   UNL       h51        52     0.17324        1.0080 ; qtot    0.000

[ bonds ]
;       ai        aj funct               r               k
         1         2     1        0.123360   594256.707031
         2         3     1        0.151390   177572.570947
         2        15     1        0.135519   319235.369434
         3         4     1        0.139458   293723.388574
         3         9     1        0.140413   276391.377979
         4         5     1        0.135748   284734.964502
         4         6     1        0.139016   308702.537598
         6         7     1        0.139696   310400.653223
         6        37     1        0.108455   325846.007715
         7         8     1        0.139473   319062.713037
         7        38     1        0.108533   323324.984277
         8         9     1        0.139859   295100.809180
         8        39     1        0.108380   327020.204004
         9        10     1        0.142246   231473.109277
        10        11     1        0.134040   244717.267090
        10        14     1        0.134040   244717.267090
        11        12     1        0.133423   350873.498535
        12        13     1        0.141148   279463.568848
        12        40     1        0.108128   339085.441162
        13        14     1        0.133423   350873.498535
        13        41     1        0.108128   339085.441162
        15        16     1        0.147261   177221.103711
        15        22     1        0.147261   177221.078174
        16        17     1        0.153427   175080.787500
        16        42     1        0.109385   298254.744336
        16        43     1        0.109385   298254.744336
        17        18     1        0.153334   175036.020947
        17        21     1        0.154277   149842.117554
        17        44     1        0.109325   303915.912891
        18        19     1        0.146885   181060.557031
        18        45     1        0.109481   294444.786377
        18        46     1        0.109481   294444.786377
        19        20     1        0.146885   181060.557031
        19        23     1        0.135320   338074.580225
        20        21     1        0.153334   175036.020947
        20        47     1        0.109481   294444.811914
        20        48     1        0.109481   294444.811914
        21        22     1        0.153427   175080.813037
        21        49     1        0.109325   303915.912891
        22        50     1        0.109385   298254.744336
        22        51     1        0.109385   298254.744336
        23        24     1        0.135489   246118.973486
        23        28     1        0.135489   246118.947949
        24        25     1        0.132683   348893.223389
        25        26     1        0.139437   294667.035840
        25        33     1        0.152302   191701.117163
        26        27     1        0.139437   294667.035840
        26        52     1        0.108268   331346.164795
        27        28     1        0.132683   348893.223389
        27        29     1        0.152302   191701.117163
        29        30     1        0.135249   235871.825293
        29        31     1        0.135249   235871.825293
        29        32     1        0.135249   235871.825293
        33        34     1        0.135249   235871.825293
        33        35     1        0.135249   235871.825293
        33        36     1        0.135249   235871.825293

[ angles ]
;       ai        aj        ak funct           theta             cth
         1         2         3     1      119.672501      497.066619
         1         2        15     1      123.358742      631.986382
         2         3         4     1      120.170364      658.951909
         2         3         9     1      123.059631      563.306688
         2        15        16     1      123.751732      462.075033
         2        15        22     1      123.751732      462.075033
         3         2        15     1      116.499901      442.236529
         3         4         5     1      118.381653      447.457240
         3         4         6     1      123.063400      625.661925
         3         9         8     1      121.246506      661.938219
         3         9        10     1      119.852539      464.186441
         4         3         9     1      116.733643      734.512130
         4         6         7     1      118.224327      691.816190
         4         6        37     1      119.628578      419.195289
         5         4         6     1      118.309547      519.263729
         6         7         8     1      120.316055      729.245229
         6         7        38     1      119.748978      430.367360
         7         6        37     1      122.164230      418.572822
         7         8         9     1      119.566689      681.094307
         7         8        39     1      121.180099      420.410728
         8         7        38     1      119.884033      429.820291
         8         9        10     1      118.315903      543.668715
         9         8        39     1      119.153175      420.650777
         9        10        11     1      121.993149      521.996072
         9        10        14     1      121.993149      521.996072
        10        11        12     1      103.760353      480.370712
        10        14        13     1      103.760353      480.370712
        11        10        14     1      115.047997      210.842962
        11        12        13     1      108.709312      295.765693
        11        12        40     1      120.742882      391.074016
        12        13        14     1      108.709312      295.765693
        12        13        41     1      130.286758      343.611798
        13        12        40     1      130.286758      343.611798
        14        13        41     1      120.742882      391.074016
        15        16        17     1      103.310646      531.297166
        15        16        42     1      110.410095      437.420741
        15        16        43     1      110.410095      437.420741
        15        22        21     1      103.310646      531.297103
        15        22        50     1      110.410095      437.420741
        15        22        51     1      110.410095      437.420805
        16        15        22     1      111.682663      397.236376
        16        17        18     1      115.967918      490.766039
        16        17        21     1      103.849319      536.391532
        16        17        44     1      110.495789      465.529246
        17        16        42     1      112.216675      453.127085
        17        16        43     1      112.216675      453.127085
        17        18        19     1      102.892921      518.507927
        17        18        45     1      112.134521      456.886371
        17        18        46     1      112.134521      456.886371
        17        21        20     1      103.531944      553.400524
        17        21        22     1      103.849319      536.391532
        17        21        49     1      111.068626      475.836438
        18        17        21     1      103.531944      553.400524
        18        17        44     1      110.411415      471.837104
        18        19        20     1      113.053551      339.130610
        18        19        23     1      123.171776      485.171114
        19        18        45     1      110.665466      411.334967
        19        18        46     1      110.665466      411.334967
        19        20        21     1      102.892921      518.507959
        19        20        47     1      110.665466      411.334967
        19        20        48     1      110.665466      411.334967
        19        23        24     1      117.300476      538.992359
        19        23        28     1      117.300476      538.992359
        20        19        23     1      123.171776      485.171178
        20        21        22     1      115.967918      490.766103
        20        21        49     1      110.411415      471.837167
        21        17        44     1      111.068642      475.836438
        21        20        47     1      112.134521      456.886371
        21        20        48     1      112.134521      456.886371
        21        22        50     1      112.216675      453.127085
        21        22        51     1      112.216675      453.127085
        22        21        49     1      110.495773      465.529246
        23        24        25     1      115.833336      932.293339
        23        28        27     1      115.833336      932.293339
        24        23        28     1      125.105141      644.079927
        24        25        26     1      124.099670      705.110234
        24        25        33     1      115.491127      402.319091
        25        26        27     1      114.068893      797.253679
        25        26        52     1      122.329468      418.490561
        25        33        34     1      111.189308      584.267484
        25        33        35     1      111.189308      584.267484
        25        33        36     1      111.189308      584.267484
        26        25        33     1      120.243431      494.335169
        26        27        28     1      124.099670      705.110234
        26        27        29     1      120.243431      494.335169
        27        26        52     1      122.329468      418.490529
        27        29        30     1      111.189308      584.267484
        27        29        31     1      111.189308      584.267484
        27        29        32     1      111.189308      584.267484
        28        27        29     1      115.491127      402.319091
        30        29        31     1      107.328712      698.498038
        30        29        32     1      107.328712      698.498038
        31        29        32     1      107.328712      698.498038
        34        33        35     1      107.328712      698.498038
        34        33        36     1      107.328712      698.498038
        35        33        36     1      107.328712      698.498038
        42        16        43     1      107.816490      348.007948
        45        18        46     1      107.788414      347.454335
        47        20        48     1      107.788414      347.454335
        50        22        51     1      107.816490      348.007916

[ dihedrals ] ; propers for gromacs 4.5 or higher, use funct 9
;       ai        aj        ak        al funct           phase               k        pn
         1         2         3         4     9        0.000000       -1.941662         1
         1         2         3         4     9      180.000000        1.094344         2
         1         2         3         4     9        0.000000        0.427875         3
         1         2         3         4     9      180.000000       -0.033087         4
         1         2         3         9     9        0.000000       -5.069446         1
         1         2         3         9     9      180.000000        1.308678         2
         1         2         3         9     9        0.000000        0.034081         3
         1         2         3         9     9      180.000000       -0.013060         4
         1         2        15        16     9        0.000000       -0.772407         1
         1         2        15        16     9      180.000000       13.817705         2
         1         2        15        16     9        0.000000       -1.124658         3
         1         2        15        16     9      180.000000       -0.523087         4
         1         2        15        22     9        0.000000       -0.772408         1
         1         2        15        22     9      180.000000       13.817705         2
         1         2        15        22     9        0.000000       -1.124658         3
         1         2        15        22     9      180.000000       -0.523087         4
         2         3         4         5     9        0.000000        0.323762         1
         2         3         4         5     9      180.000000       17.639030         2
         2         3         4         5     9        0.000000        0.671040         3
         2         3         4         5     9      180.000000       -0.965030         4
         2         3         4         6     9        0.000000       -0.042703         1
         2         3         4         6     9      180.000000       12.507043         2
         2         3         4         6     9        0.000000        0.025809         3
         2         3         4         6     9      180.000000       -0.298714         4
         2         3         9         8     9        0.000000       -0.159484         1
         2         3         9         8     9      180.000000       11.728617         2
         2         3         9         8     9        0.000000       -0.307066         3
         2         3         9         8     9      180.000000       -0.206715         4
         2         3         9        10     9        0.000000       -0.058327         1
         2         3         9        10     9      180.000000       16.156172         2
         2         3         9        10     9        0.000000        0.341550         3
         2         3         9        10     9      180.000000       -0.901251         4
         2        15        16        17     9        0.000000       -0.924896         1
         2        15        16        17     9      180.000000       -0.742800         2
         2        15        16        17     9        0.000000        0.102248         3
         2        15        16        17     9      180.000000        0.138445         4
         2        15        16        42     9        0.000000        0.071281         1
         2        15        16        42     9      180.000000        0.076325         2
         2        15        16        42     9        0.000000        0.084133         3
         2        15        16        42     9      180.000000       -0.022120         4
         2        15        16        43     9        0.000000        0.071281         1
         2        15        16        43     9      180.000000        0.076325         2
         2        15        16        43     9        0.000000        0.084133         3
         2        15        16        43     9      180.000000       -0.022120         4
         2        15        22        21     9        0.000000       -0.924897         1
         2        15        22        21     9      180.000000       -0.742800         2
         2        15        22        21     9        0.000000        0.102248         3
         2        15        22        21     9      180.000000        0.138445         4
         2        15        22        50     9        0.000000        0.071282         1
         2        15        22        50     9      180.000000        0.076325         2
         2        15        22        50     9        0.000000        0.084133         3
         2        15        22        50     9      180.000000       -0.022120         4
         2        15        22        51     9        0.000000        0.071282         1
         2        15        22        51     9      180.000000        0.076325         2
         2        15        22        51     9        0.000000        0.084133         3
         2        15        22        51     9      180.000000       -0.022120         4
         3         2        15        16     9        0.000000        3.807755         1
         3         2        15        16     9      180.000000       11.423131         2
         3         2        15        16     9        0.000000        0.950522         3
         3         2        15        16     9      180.000000       -0.728721         4
         3         2        15        22     9        0.000000        3.807755         1
         3         2        15        22     9      180.000000       11.423134         2
         3         2        15        22     9        0.000000        0.950522         3
         3         2        15        22     9      180.000000       -0.728722         4
         3         4         6         7     9        0.000000       -0.230779         1
         3         4         6         7     9      180.000000       17.563440         2
         3         4         6         7     9        0.000000       -1.369842         3
         3         4         6         7     9      180.000000       -0.339552         4
         3         4         6        37     9        0.000000       -0.133924         1
         3         4         6        37     9      180.000000       13.166469         2
         3         4         6        37     9        0.000000       -0.700048         3
         3         4         6        37     9      180.000000        0.076452         4
         3         9         8         7     9        0.000000       -0.224893         1
         3         9         8         7     9      180.000000       17.844402         2
         3         9         8         7     9        0.000000       -1.762319         3
         3         9         8         7     9      180.000000       -0.293758         4
         3         9         8        39     9        0.000000        0.075314         1
         3         9         8        39     9      180.000000       13.789728         2
         3         9         8        39     9        0.000000       -0.664390         3
         3         9         8        39     9      180.000000        0.152451         4
         3         9        10        11     9        0.000000       -0.928395         1
         3         9        10        11     9      180.000000        3.806786         2
         3         9        10        11     9        0.000000        0.016177         3
         3         9        10        11     9      180.000000       -0.052316         4
         3         9        10        14     9        0.000000       -0.928395         1
         3         9        10        14     9      180.000000        3.806786         2
         3         9        10        14     9        0.000000        0.016177         3
         3         9        10        14     9      180.000000       -0.052316         4
         4         3         2        15     9        0.000000       -0.368548         1
         4         3         2        15     9      180.000000        3.799954         2
         4         3         2        15     9        0.000000       -0.343839         3
         4         3         2        15     9      180.000000        0.220399         4
         4         3         9         8     9        0.000000       -0.141324         1
         4         3         9         8     9      180.000000       16.126331         2
         4         3         9         8     9        0.000000       -1.429498         3
         4         3         9         8     9      180.000000       -0.178700         4
         4         3         9        10     9        0.000000        0.375259         1
         4         3         9        10     9      180.000000       18.126685         2
         4         3         9        10     9        0.000000        0.186440         3
         4         3         9        10     9      180.000000       -0.681470         4
         4         6         7         8     9        0.000000       -0.152374         1
         4         6         7         8     9      180.000000       18.716159         2
         4         6         7         8     9        0.000000       -1.818927         3
         4         6         7         8     9      180.000000       -0.453549         4
         4         6         7        38     9        0.000000        0.180906         1
         4         6         7        38     9      180.000000       14.902493         2
         4         6         7        38     9        0.000000       -0.731347         3
         4         6         7        38     9      180.000000        0.027321         4
         5         4         3         9     9        0.000000        0.673216         1
         5         4         3         9     9      180.000000       23.238175         2
         5         4         3         9     9        0.000000        0.955630         3
         5         4         3         9     9      180.000000       -1.163490         4
         5         4         6         7     9        0.000000        0.552800         1
         5         4         6         7     9      180.000000       23.768154         2
         5         4         6         7     9        0.000000        0.607966         3
         5         4         6         7     9      180.000000       -0.689433         4
         5         4         6        37     9        0.000000        0.278727         1
         5         4         6        37     9      180.000000       16.994412         2
         5         4         6        37     9        0.000000        0.338076         3
         5         4         6        37     9      180.000000        0.093222         4
         6         4         3         9     9        0.000000        0.135117         1
         6         4         3         9     9      180.000000       15.814503         2
         6         4         3         9     9        0.000000       -0.812438         3
         6         4         3         9     9      180.000000       -0.422734         4
         6         7         8         9     9        0.000000       -0.192714         1
         6         7         8         9     9      180.000000       18.408479         2
         6         7         8         9     9        0.000000       -1.779917         3
         6         7         8         9     9      180.000000       -0.374514         4
         6         7         8        39     9        0.000000        0.142297         1
         6         7         8        39     9      180.000000       15.187281         2
         6         7         8        39     9        0.000000       -0.758856         3
         6         7         8        39     9      180.000000        0.063922         4
         7         8         9        10     9        0.000000        0.358636         1
         7         8         9        10     9      180.000000       18.702792         2
         7         8         9        10     9        0.000000        0.139137         3
         7         8         9        10     9      180.000000       -0.377296         4
         8         7         6        37     9        0.000000        0.246066         1
         8         7         6        37     9      180.000000       14.028889         2
         8         7         6        37     9        0.000000       -0.660950         3
         8         7         6        37     9      180.000000        0.116191         4
         8         9        10        11     9        0.000000        0.756737         1
         8         9        10        11     9      180.000000        3.189610         2
         8         9        10        11     9        0.000000       -0.349349         3
         8         9        10        11     9      180.000000        0.086097         4
         8         9        10        14     9        0.000000        0.756737         1
         8         9        10        14     9      180.000000        3.189610         2
         8         9        10        14     9        0.000000       -0.349349         3
         8         9        10        14     9      180.000000        0.086097         4
         9         3         2        15     9        0.000000        1.305199         1
         9         3         2        15     9      180.000000        4.080129         2
         9         3         2        15     9        0.000000       -0.555958         3
         9         3         2        15     9      180.000000        0.231955         4
         9         8         7        38     9        0.000000        0.014671         1
         9         8         7        38     9      180.000000       14.765854         2
         9         8         7        38     9        0.000000       -0.786746         3
         9         8         7        38     9      180.000000        0.015739         4
         9        10        11        12     9        0.000000        0.775624         1
         9        10        11        12     9      180.000000       14.213466         2
         9        10        11        12     9        0.000000        0.460130         3
         9        10        11        12     9      180.000000       -0.178471         4
         9        10        14        13     9        0.000000        0.775624         1
         9        10        14        13     9      180.000000       14.213466         2
         9        10        14        13     9        0.000000        0.460130         3
         9        10        14        13     9      180.000000       -0.178471         4
        10         9         8        39     9        0.000000        0.319829         1
        10         9         8        39     9      180.000000       14.602055         2
        10         9         8        39     9        0.000000        0.000376         3
        10         9         8        39     9      180.000000        0.144391         4
        10        11        12        13     9        0.000000       -0.095082         1
        10        11        12        13     9      180.000000       41.109455         2
        10        11        12        13     9        0.000000       -5.890197         3
        10        11        12        13     9      180.000000       -0.007893         4
        10        11        12        40     9        0.000000        1.230245         1
        10        11        12        40     9      180.000000       26.477525         2
        10        11        12        40     9        0.000000       -0.131285         3
        10        11        12        40     9      180.000000       -0.123740         4
        10        14        13        12     9        0.000000       -0.095082         1
        10        14        13        12     9      180.000000       41.109455         2
        10        14        13        12     9        0.000000       -5.890197         3
        10        14        13        12     9      180.000000       -0.007893         4
        10        14        13        41     9        0.000000        1.230245         1
        10        14        13        41     9      180.000000       26.477525         2
        10        14        13        41     9        0.000000       -0.131285         3
        10        14        13        41     9      180.000000       -0.123740         4
        11        10        14        13     9        0.000000       -0.214504         1
        11        10        14        13     9      180.000000       33.461254         2
        11        10        14        13     9        0.000000       -5.627567         3
        11        10        14        13     9      180.000000        0.135267         4
        11        12        13        14     9        0.000000       -0.646398         1
        11        12        13        14     9      180.000000       33.879572         2
        11        12        13        14     9        0.000000       -7.997883         3
        11        12        13        14     9      180.000000       -0.068922         4
        11        12        13        41     9        0.000000        0.399471         1
        11        12        13        41     9      180.000000       15.777790         2
        11        12        13        41     9        0.000000       -0.622625         3
        11        12        13        41     9      180.000000       -0.473181         4
        12        11        10        14     9        0.000000       -0.214504         1
        12        11        10        14     9      180.000000       33.461254         2
        12        11        10        14     9        0.000000       -5.627567         3
        12        11        10        14     9      180.000000        0.135267         4
        14        13        12        40     9        0.000000        0.399471         1
        14        13        12        40     9      180.000000       15.777790         2
        14        13        12        40     9        0.000000       -0.622625         3
        14        13        12        40     9      180.000000       -0.473181         4
        15        16        17        18     9        0.000000       -0.177639         1
        15        16        17        18     9      180.000000       -1.441188         2
        15        16        17        18     9        0.000000        0.139511         3
        15        16        17        18     9      180.000000        0.103643         4
        15        16        17        21     9        0.000000       -2.932575         1
        15        16        17        21     9      180.000000        7.822341         2
        15        16        17        21     9        0.000000       -0.704966         3
        15        16        17        21     9      180.000000       -1.187778         4
        15        16        17        44     9        0.000000        0.949044         1
        15        16        17        44     9      180.000000       -0.377382         2
        15        16        17        44     9        0.000000       -0.056736         3
        15        16        17        44     9      180.000000        0.252566         4
        15        22        21        17     9        0.000000       -2.932574         1
        15        22        21        17     9      180.000000        7.822345         2
        15        22        21        17     9        0.000000       -0.704966         3
        15        22        21        17     9      180.000000       -1.187779         4
        15        22        21        20     9        0.000000       -0.177640         1
        15        22        21        20     9      180.000000       -1.441188         2
        15        22        21        20     9        0.000000        0.139510         3
        15        22        21        20     9      180.000000        0.103644         4
        15        22        21        49     9        0.000000        0.949043         1
        15        22        21        49     9      180.000000       -0.377382         2
        15        22        21        49     9        0.000000       -0.056736         3
        15        22        21        49     9      180.000000        0.252566         4
        16        15        22        21     9        0.000000       -0.098874         1
        16        15        22        21     9      180.000000       -0.275993         2
        16        15        22        21     9        0.000000        0.219330         3
        16        15        22        21     9      180.000000       -0.018668         4
        16        15        22        50     9        0.000000       -0.018324         1
        16        15        22        50     9      180.000000       -0.010220         2
        16        15        22        50     9        0.000000        0.119733         3
        16        15        22        50     9      180.000000        0.059476         4
        16        15        22        51     9        0.000000       -0.018324         1
        16        15        22        51     9      180.000000       -0.010220         2
        16        15        22        51     9        0.000000        0.119733         3
        16        15        22        51     9      180.000000        0.059476         4
        16        17        18        19     9        0.000000        0.141092         1
        16        17        18        19     9      180.000000       -1.554593         2
        16        17        18        19     9        0.000000        0.129275         3
        16        17        18        19     9      180.000000        0.187854         4
        16        17        18        45     9        0.000000       -0.150867         1
        16        17        18        45     9      180.000000        0.072011         2
        16        17        18        45     9        0.000000        0.214875         3
        16        17        18        45     9      180.000000        0.045180         4
        16        17        18        46     9        0.000000       -0.150867         1
        16        17        18        46     9      180.000000        0.072011         2
        16        17        18        46     9        0.000000        0.214875         3
        16        17        18        46     9      180.000000        0.045180         4
        16        17        21        20     9        0.000000       -1.429697         1
        16        17        21        20     9      180.000000       -0.955406         2
        16        17        21        20     9        0.000000        0.546147         3
        16        17        21        20     9      180.000000       -0.724521         4
        16        17        21        22     9        0.000000       -0.903493         1
        16        17        21        22     9      180.000000       -0.930897         2
        16        17        21        22     9        0.000000        0.568821         3
        16        17        21        22     9      180.000000       -0.686259         4
        16        17        21        49     9        0.000000       -0.022164         1
        16        17        21        49     9      180.000000        0.142976         2
        16        17        21        49     9        0.000000        0.388150         3
        16        17        21        49     9      180.000000        0.197014         4
        17        16        15        22     9        0.000000       -0.098874         1
        17        16        15        22     9      180.000000       -0.275992         2
        17        16        15        22     9        0.000000        0.219330         3
        17        16        15        22     9      180.000000       -0.018668         4
        17        18        19        20     9        0.000000       -0.515519         1
        17        18        19        20     9      180.000000        0.695786         2
        17        18        19        20     9        0.000000        0.374724         3
        17        18        19        20     9      180.000000       -0.306280         4
        17        18        19        23     9        0.000000       -3.556690         1
        17        18        19        23     9      180.000000       -0.456723         2
        17        18        19        23     9        0.000000        0.396809         3
        17        18        19        23     9      180.000000        0.175002         4
        17        21        20        19     9        0.000000       -3.183877         1
        17        21        20        19     9      180.000000       11.770771         2
        17        21        20        19     9        0.000000       -0.669596         3
        17        21        20        19     9      180.000000       -2.371236         4
        17        21        20        47     9        0.000000        0.005453         1
        17        21        20        47     9      180.000000       -0.187956         2
        17        21        20        47     9        0.000000       -0.253494         3
        17        21        20        47     9      180.000000        0.289446         4
        17        21        20        48     9        0.000000        0.005453         1
        17        21        20        48     9      180.000000       -0.187956         2
        17        21        20        48     9        0.000000       -0.253494         3
        17        21        20        48     9      180.000000        0.289446         4
        17        21        22        50     9        0.000000        0.022483         1
        17        21        22        50     9      180.000000       -0.185435         2
        17        21        22        50     9        0.000000       -0.302149         3
        17        21        22        50     9      180.000000        0.229395         4
        17        21        22        51     9        0.000000        0.022483         1
        17        21        22        51     9      180.000000       -0.185435         2
        17        21        22        51     9        0.000000       -0.302149         3
        17        21        22        51     9      180.000000        0.229395         4
        18        17        16        42     9        0.000000       -0.090271         1
        18        17        16        42     9      180.000000        0.043313         2
        18        17        16        42     9        0.000000        0.181102         3
        18        17        16        42     9      180.000000        0.056845         4
        18        17        16        43     9        0.000000       -0.090271         1
        18        17        16        43     9      180.000000        0.043313         2
        18        17        16        43     9        0.000000        0.181102         3
        18        17        16        43     9      180.000000        0.056845         4
        18        17        21        20     9        0.000000       -1.723215         1
        18        17        21        20     9      180.000000       -1.104300         2
        18        17        21        20     9        0.000000        0.465854         3
        18        17        21        20     9      180.000000       -0.749204         4
        18        17        21        22     9        0.000000       -1.429696         1
        18        17        21        22     9      180.000000       -0.955407         2
        18        17        21        22     9        0.000000        0.546147         3
        18        17        21        22     9      180.000000       -0.724520         4
        18        17        21        49     9        0.000000        0.196399         1
        18        17        21        49     9      180.000000        0.124290         2
        18        17        21        49     9        0.000000        0.308842         3
        18        17        21        49     9      180.000000        0.285300         4
        18        19        20        21     9        0.000000       -0.515518         1
        18        19        20        21     9      180.000000        0.695785         2
        18        19        20        21     9        0.000000        0.374724         3
        18        19        20        21     9      180.000000       -0.306280         4
        18        19        20        47     9        0.000000       -0.040239         1
        18        19        20        47     9      180.000000       -0.063463         2
        18        19        20        47     9        0.000000        0.343610         3
        18        19        20        47     9      180.000000        0.107466         4
        18        19        20        48     9        0.000000       -0.040239         1
        18        19        20        48     9      180.000000       -0.063463         2
        18        19        20        48     9        0.000000        0.343610         3
        18        19        20        48     9      180.000000        0.107466         4
        18        19        23        24     9        0.000000        0.565744         1
        18        19        23        24     9      180.000000       10.099805         2
        18        19        23        24     9        0.000000       -0.196143         3
        18        19        23        24     9      180.000000       -0.939100         4
        18        19        23        28     9        0.000000        0.565745         1
        18        19        23        28     9      180.000000       10.099806         2
        18        19        23        28     9        0.000000       -0.196143         3
        18        19        23        28     9      180.000000       -0.939101         4
        19        18        17        21     9        0.000000       -3.183874         1
        19        18        17        21     9      180.000000       11.770770         2
        19        18        17        21     9        0.000000       -0.669596         3
        19        18        17        21     9      180.000000       -2.371236         4
        19        18        17        44     9        0.000000        3.046268         1
        19        18        17        44     9      180.000000       -0.789547         2
        19        18        17        44     9        0.000000       -0.188588         3
        19        18        17        44     9      180.000000        0.438255         4
        19        20        21        22     9        0.000000        0.141092         1
        19        20        21        22     9      180.000000       -1.554592         2
        19        20        21        22     9        0.000000        0.129276         3
        19        20        21        22     9      180.000000        0.187854         4
        19        20        21        49     9        0.000000        3.046268         1
        19        20        21        49     9      180.000000       -0.789547         2
        19        20        21        49     9        0.000000       -0.188588         3
        19        20        21        49     9      180.000000        0.438255         4
        19        23        24        25     9        0.000000        0.906211         1
        19        23        24        25     9      180.000000       15.398478         2
        19        23        24        25     9        0.000000        0.645650         3
        19        23        24        25     9      180.000000       -1.042440         4
        19        23        28        27     9        0.000000        0.906212         1
        19        23        28        27     9      180.000000       15.398478         2
        19        23        28        27     9        0.000000        0.645650         3
        19        23        28        27     9      180.000000       -1.042440         4
        20        19        18        45     9        0.000000       -0.040239         1
        20        19        18        45     9      180.000000       -0.063462         2
        20        19        18        45     9        0.000000        0.343610         3
        20        19        18        45     9      180.000000        0.107466         4
        20        19        18        46     9        0.000000       -0.040239         1
        20        19        18        46     9      180.000000       -0.063462         2
        20        19        18        46     9        0.000000        0.343610         3
        20        19        18        46     9      180.000000        0.107466         4
        20        19        23        24     9        0.000000        0.565744         1
        20        19        23        24     9      180.000000       10.099806         2
        20        19        23        24     9        0.000000       -0.196143         3
        20        19        23        24     9      180.000000       -0.939100         4
        20        19        23        28     9        0.000000        0.565745         1
        20        19        23        28     9      180.000000       10.099806         2
        20        19        23        28     9        0.000000       -0.196143         3
        20        19        23        28     9      180.000000       -0.939101         4
        20        21        17        44     9        0.000000        0.196400         1
        20        21        17        44     9      180.000000        0.124290         2
        20        21        17        44     9        0.000000        0.308843         3
        20        21        17        44     9      180.000000        0.285300         4
        20        21        22        50     9        0.000000       -0.090272         1
        20        21        22        50     9      180.000000        0.043314         2
        20        21        22        50     9        0.000000        0.181102         3
        20        21        22        50     9      180.000000        0.056845         4
        20        21        22        51     9        0.000000       -0.090272         1
        20        21        22        51     9      180.000000        0.043314         2
        20        21        22        51     9        0.000000        0.181102         3
        20        21        22        51     9      180.000000        0.056845         4
        21        17        16        42     9        0.000000        0.022484         1
        21        17        16        42     9      180.000000       -0.185435         2
        21        17        16        42     9        0.000000       -0.302150         3
        21        17        16        42     9      180.000000        0.229395         4
        21        17        16        43     9        0.000000        0.022484         1
        21        17        16        43     9      180.000000       -0.185435         2
        21        17        16        43     9        0.000000       -0.302150         3
        21        17        16        43     9      180.000000        0.229395         4
        21        17        18        45     9        0.000000        0.005453         1
        21        17        18        45     9      180.000000       -0.187956         2
        21        17        18        45     9        0.000000       -0.253494         3
        21        17        18        45     9      180.000000        0.289445         4
        21        17        18        46     9        0.000000        0.005453         1
        21        17        18        46     9      180.000000       -0.187956         2
        21        17        18        46     9        0.000000       -0.253494         3
        21        17        18        46     9      180.000000        0.289445         4
        21        20        19        23     9        0.000000       -3.556689         1
        21        20        19        23     9      180.000000       -0.456723         2
        21        20        19        23     9        0.000000        0.396809         3
        21        20        19        23     9      180.000000        0.175002         4
        22        15        16        42     9        0.000000       -0.018324         1
        22        15        16        42     9      180.000000       -0.010219         2
        22        15        16        42     9        0.000000        0.119733         3
        22        15        16        42     9      180.000000        0.059477         4
        22        15        16        43     9        0.000000       -0.018324         1
        22        15        16        43     9      180.000000       -0.010219         2
        22        15        16        43     9        0.000000        0.119733         3
        22        15        16        43     9      180.000000        0.059477         4
        22        21        17        44     9        0.000000       -0.022165         1
        22        21        17        44     9      180.000000        0.142976         2
        22        21        17        44     9        0.000000        0.388150         3
        22        21        17        44     9      180.000000        0.197015         4
        22        21        20        47     9        0.000000       -0.150867         1
        22        21        20        47     9      180.000000        0.072012         2
        22        21        20        47     9        0.000000        0.214875         3
        22        21        20        47     9      180.000000        0.045179         4
        22        21        20        48     9        0.000000       -0.150867         1
        22        21        20        48     9      180.000000        0.072012         2
        22        21        20        48     9        0.000000        0.214875         3
        22        21        20        48     9      180.000000        0.045179         4
        23        19        18        45     9        0.000000        0.005710         1
        23        19        18        45     9      180.000000       -0.104027         2
        23        19        18        45     9        0.000000        0.476682         3
        23        19        18        45     9      180.000000       -0.010259         4
        23        19        18        46     9        0.000000        0.005710         1
        23        19        18        46     9      180.000000       -0.104027         2
        23        19        18        46     9        0.000000        0.476682         3
        23        19        18        46     9      180.000000       -0.010259         4
        23        19        20        47     9        0.000000        0.005710         1
        23        19        20        47     9      180.000000       -0.104026         2
        23        19        20        47     9        0.000000        0.476682         3
        23        19        20        47     9      180.000000       -0.010259         4
        23        19        20        48     9        0.000000        0.005710         1
        23        19        20        48     9      180.000000       -0.104026         2
        23        19        20        48     9        0.000000        0.476682         3
        23        19        20        48     9      180.000000       -0.010259         4
        23        24        25        26     9        0.000000       -0.470178         1
        23        24        25        26     9      180.000000       19.527681         2
        23        24        25        26     9        0.000000       -1.180949         3
        23        24        25        26     9      180.000000       -0.288666         4
        23        24        25        33     9        0.000000        0.586096         1
        23        24        25        33     9      180.000000       18.550559         2
        23        24        25        33     9        0.000000        0.834947         3
        23        24        25        33     9      180.000000       -0.580117         4
        23        28        27        26     9        0.000000       -0.470177         1
        23        28        27        26     9      180.000000       19.527679         2
        23        28        27        26     9        0.000000       -1.180949         3
        23        28        27        26     9      180.000000       -0.288666         4
        23        28        27        29     9        0.000000        0.586097         1
        23        28        27        29     9      180.000000       18.550559         2
        23        28        27        29     9        0.000000        0.834947         3
        23        28        27        29     9      180.000000       -0.580117         4
        24        23        28        27     9        0.000000        0.722483         1
        24        23        28        27     9      180.000000        9.720682         2
        24        23        28        27     9        0.000000        0.802347         3
        24        23        28        27     9      180.000000       -0.535690         4
        24        25        26        27     9        0.000000       -0.032498         1
        24        25        26        27     9      180.000000       15.474909         2
        24        25        26        27     9        0.000000       -0.390574         3
        24        25        26        27     9      180.000000       -0.548798         4
        24        25        26        52     9        0.000000        0.136799         1
        24        25        26        52     9      180.000000       11.733172         2
        24        25        26        52     9        0.000000       -0.267814         3
        24        25        26        52     9      180.000000       -0.138195         4
        24        25        33        34     9        0.000000        0.321464         1
        24        25        33        34     9      180.000000       -0.064470         2
        24        25        33        34     9        0.000000        0.271366         3
        24        25        33        34     9      180.000000        0.045404         4
        24        25        33        35     9        0.000000        0.321464         1
        24        25        33        35     9      180.000000       -0.064470         2
        24        25        33        35     9        0.000000        0.271366         3
        24        25        33        35     9      180.000000        0.045404         4
        24        25        33        36     9        0.000000        0.321464         1
        24        25        33        36     9      180.000000       -0.064470         2
        24        25        33        36     9        0.000000        0.271366         3
        24        25        33        36     9      180.000000        0.045404         4
        25        24        23        28     9        0.000000        0.722482         1
        25        24        23        28     9      180.000000        9.720682         2
        25        24        23        28     9        0.000000        0.802347         3
        25        24        23        28     9      180.000000       -0.535690         4
        25        26        27        28     9        0.000000       -0.032498         1
        25        26        27        28     9      180.000000       15.474908         2
        25        26        27        28     9        0.000000       -0.390574         3
        25        26        27        28     9      180.000000       -0.548798         4
        25        26        27        29     9        0.000000        0.791564         1
        25        26        27        29     9      180.000000       14.789205         2
        25        26        27        29     9        0.000000        0.542468         3
        25        26        27        29     9      180.000000       -0.797667         4
        26        25        33        34     9        0.000000       -0.199758         1
        26        25        33        34     9      180.000000        0.017762         2
        26        25        33        34     9        0.000000       -0.239130         3
        26        25        33        34     9      180.000000        0.038352         4
        26        25        33        35     9        0.000000       -0.199758         1
        26        25        33        35     9      180.000000        0.017762         2
        26        25        33        35     9        0.000000       -0.239130         3
        26        25        33        35     9      180.000000        0.038352         4
        26        25        33        36     9        0.000000       -0.199758         1
        26        25        33        36     9      180.000000        0.017762         2
        26        25        33        36     9        0.000000       -0.239130         3
        26        25        33        36     9      180.000000        0.038352         4
        26        27        29        30     9        0.000000       -0.199758         1
        26        27        29        30     9      180.000000        0.017764         2
        26        27        29        30     9        0.000000       -0.239131         3
        26        27        29        30     9      180.000000        0.038352         4
        26        27        29        31     9        0.000000       -0.199758         1
        26        27        29        31     9      180.000000        0.017764         2
        26        27        29        31     9        0.000000       -0.239131         3
        26        27        29        31     9      180.000000        0.038352         4
        26        27        29        32     9        0.000000       -0.199758         1
        26        27        29        32     9      180.000000        0.017764         2
        26        27        29        32     9        0.000000       -0.239131         3
        26        27        29        32     9      180.000000        0.038352         4
        27        26        25        33     9        0.000000        0.791565         1
        27        26        25        33     9      180.000000       14.789207         2
        27        26        25        33     9        0.000000        0.542468         3
        27        26        25        33     9      180.000000       -0.797667         4
        28        27        26        52     9        0.000000        0.136800         1
        28        27        26        52     9      180.000000       11.733172         2
        28        27        26        52     9        0.000000       -0.267814         3
        28        27        26        52     9      180.000000       -0.138195         4
        28        27        29        30     9        0.000000        0.321464         1
        28        27        29        30     9      180.000000       -0.064471         2
        28        27        29        30     9        0.000000        0.271366         3
        28        27        29        30     9      180.000000        0.045404         4
        28        27        29        31     9        0.000000        0.321464         1
        28        27        29        31     9      180.000000       -0.064471         2
        28        27        29        31     9        0.000000        0.271366         3
        28        27        29        31     9      180.000000        0.045404         4
        28        27        29        32     9        0.000000        0.321464         1
        28        27        29        32     9      180.000000       -0.064471         2
        28        27        29        32     9        0.000000        0.271366         3
        28        27        29        32     9      180.000000        0.045404         4
        29        27        26        52     9        0.000000        0.256072         1
        29        27        26        52     9      180.000000       10.796801         2
        29        27        26        52     9        0.000000       -0.191640         3
        29        27        26        52     9      180.000000       -0.012635         4
        33        25        26        52     9        0.000000        0.256072         1
        33        25        26        52     9      180.000000       10.796803         2
        33        25        26        52     9        0.000000       -0.191640         3
        33        25        26        52     9      180.000000       -0.012635         4
        37         6         7        38     9        0.000000       -0.176698         1
        37         6         7        38     9      180.000000       10.882746         2
        37         6         7        38     9        0.000000       -0.527182         3
        37         6         7        38     9      180.000000        0.131688         4
        38         7         8        39     9        0.000000       -0.152786         1
        38         7         8        39     9      180.000000       12.297012         2
        38         7         8        39     9        0.000000       -0.885313         3
        38         7         8        39     9      180.000000        0.289530         4
        40        12        13        41     9        0.000000       -0.304765         1
        40        12        13        41     9      180.000000        8.321254         2
        40        12        13        41     9        0.000000       -0.141498         3
        40        12        13        41     9      180.000000        0.273252         4
        42        16        17        44     9        0.000000       -0.086594         1
        42        16        17        44     9      180.000000        0.026399         2
        42        16        17        44     9        0.000000        0.269152         3
        42        16        17        44     9      180.000000       -0.020190         4
        43        16        17        44     9        0.000000       -0.086594         1
        43        16        17        44     9      180.000000        0.026399         2
        43        16        17        44     9        0.000000        0.269152         3
        43        16        17        44     9      180.000000       -0.020190         4
        44        17        18        45     9        0.000000       -0.140740         1
        44        17        18        45     9      180.000000       -0.009947         2
        44        17        18        45     9        0.000000        0.295617         3
        44        17        18        45     9      180.000000       -0.018107         4
        44        17        18        46     9        0.000000       -0.140740         1
        44        17        18        46     9      180.000000       -0.009947         2
        44        17        18        46     9        0.000000        0.295617         3
        44        17        18        46     9      180.000000       -0.018107         4
        44        17        21        49     9        0.000000        0.223573         1
        44        17        21        49     9      180.000000       -0.077957         2
        44        17        21        49     9        0.000000        0.353694         3
        44        17        21        49     9      180.000000       -0.057173         4
        47        20        21        49     9        0.000000       -0.140741         1
        47        20        21        49     9      180.000000       -0.009947         2
        47        20        21        49     9        0.000000        0.295617         3
        47        20        21        49     9      180.000000       -0.018107         4
        48        20        21        49     9        0.000000       -0.140741         1
        48        20        21        49     9      180.000000       -0.009947         2
        48        20        21        49     9        0.000000        0.295617         3
        48        20        21        49     9      180.000000       -0.018107         4
        49        21        22        50     9        0.000000       -0.086596         1
        49        21        22        50     9      180.000000        0.026399         2
        49        21        22        50     9        0.000000        0.269152         3
        49        21        22        50     9      180.000000       -0.020190         4
        49        21        22        51     9        0.000000       -0.086596         1
        49        21        22        51     9      180.000000        0.026399         2
        49        21        22        51     9        0.000000        0.269152         3
        49        21        22        51     9      180.000000       -0.020190         4

[ dihedrals ] ; impropers
;       ai        aj        ak        al funct           phase               k        pn
         6         4         7        37     4      180.000000        0.307012         2
         6         7        37         4     4      180.000000        0.307012         2
         6        37         4         7     4      180.000000        0.307012         2
         7         6         8        38     4      180.000000        2.050247         2
         7         8        38         6     4      180.000000        2.050247         2
         7        38         6         8     4      180.000000        2.050247         2
         8         7         9        39     4      180.000000        0.161180         2
         8         9        39         7     4      180.000000        0.161180         2
         8        39         7         9     4      180.000000        0.161180         2
        23        19        24        28     4      180.000000       27.893333         2
        23        24        28        19     4      180.000000       27.893333         2
        23        28        19        24     4      180.000000       27.893333         2
        25        24        26        33     4      180.000000        8.542408         2
        25        26        33        24     4      180.000000        8.542408         2
        25        33        24        26     4      180.000000        8.542408         2
        27        26        28        29     4      180.000000        8.542407         2
        27        28        29        26     4      180.000000        8.542407         2
        27        29        26        28     4      180.000000        8.542407         2

[ pairs ]
;       ai        aj funct
         1         4     1
         1         9     1
         1        16     1
         1        22     1
         2         5     1
         2         6     1
         2         8     1
         2        10     1
         2        17     1
         2        21     1
         2        42     1
         2        43     1
         2        50     1
         2        51     1
         3         7     1
         3        11     1
         3        14     1
         3        16     1
         3        22     1
         3        37     1
         3        39     1
         4         8     1
         4        10     1
         4        15     1
         4        38     1
         5         7     1
         5         9     1
         5        37     1
         6         9     1
         6        39     1
         7        10     1
         8        11     1
         8        14     1
         8        37     1
         9        12     1
         9        13     1
         9        15     1
         9        38     1
        10        39     1
        10        40     1
        10        41     1
        11        41     1
        14        40     1
        15        18     1
        15        20     1
        15        44     1
        15        49     1
        16        19     1
        16        20     1
        16        45     1
        16        46     1
        16        49     1
        16        50     1
        16        51     1
        17        23     1
        17        47     1
        17        48     1
        17        50     1
        17        51     1
        18        22     1
        18        24     1
        18        28     1
        18        42     1
        18        43     1
        18        47     1
        18        48     1
        18        49     1
        19        22     1
        19        25     1
        19        27     1
        19        44     1
        19        49     1
        20        24     1
        20        28     1
        20        44     1
        20        45     1
        20        46     1
        20        50     1
        20        51     1
        21        23     1
        21        42     1
        21        43     1
        21        45     1
        21        46     1
        22        42     1
        22        43     1
        22        44     1
        22        47     1
        22        48     1
        23        26     1
        23        29     1
        23        33     1
        23        45     1
        23        46     1
        23        47     1
        23        48     1
        24        27     1
        24        34     1
        24        35     1
        24        36     1
        24        52     1
        25        28     1
        25        29     1
        26        30     1
        26        31     1
        26        32     1
        26        34     1
        26        35     1
        26        36     1
        27        33     1
        28        30     1
        28        31     1
        28        32     1
        28        52     1
        29        52     1
        33        52     1
        37        38     1
        38        39     1
        40        41     1
        42        44     1
        43        44     1
        44        45     1
        44        46     1
        44        49     1
        47        49     1
        48        49     1
        49        50     1
        49        51     1
