; ITP file created by ByteFF-ML, 2025-12-06 04:42:31.744242

[ atomtypes ]
;name           bonded.type        at.num        mass        charge   ptype           sigma         epsilon
 c0bf                                   6      0.0000       0.00000       A     3.39817e-01     4.50499e-01
 c1bf                                   6      0.0000       0.00000       A     3.31510e-01     4.12156e-01
 c2bf                                   6      0.0000       0.00000       A     3.31523e-01     4.13703e-01
 c3bf                                   6      0.0000       0.00000       A     3.31425e-01     4.11087e-01
 c4bf                                   6      0.0000       0.00000       A     3.31538e-01     4.14675e-01
 c5bf                                   6      0.0000       0.00000       A     3.31503e-01     4.11748e-01
 c6bf                                   6      0.0000       0.00000       A     3.31492e-01     4.12020e-01
 c7bf                                   6      0.0000       0.00000       A     3.31341e-01     4.09697e-01
 o8bf                                   8      0.0000       0.00000       A     3.04770e-01     6.12733e-01
 n9bf                                   7      0.0000       0.00000       A     3.18141e-01     6.81151e-01
 c10bf                                  6      0.0000       0.00000       A     3.39727e-01     4.50797e-01
 c11bf                                  6      0.0000       0.00000       A     3.39712e-01     4.49806e-01
 c12bf                                  6      0.0000       0.00000       A     3.39585e-01     4.49212e-01
 n13bf                                  7      0.0000       0.00000       A     3.19428e-01     8.94136e-01
 c14bf                                  6      0.0000       0.00000       A     3.39585e-01     4.49212e-01
 c15bf                                  6      0.0000       0.00000       A     3.39712e-01     4.49806e-01
 c16bf                                  6      0.0000       0.00000       A     3.39727e-01     4.50797e-01
 c17bf                                  6      0.0000       0.00000       A     3.31548e-01     4.12659e-01
 n18bf                                  7      0.0000       0.00000       A     3.38255e-01     3.94373e-01
 c19bf                                  6      0.0000       0.00000       A     3.31356e-01     4.11183e-01
 c20bf                                  6      0.0000       0.00000       A     3.39813e-01     4.50976e-01
 c21bf                                  6      0.0000       0.00000       A     3.31508e-01     4.12834e-01
 c22bf                                  6      0.0000       0.00000       A     3.31356e-01     4.11183e-01
 c23bf                                  6      0.0000       0.00000       A     3.39813e-01     4.50976e-01
 n24bf                                  7      0.0000       0.00000       A     3.38255e-01     3.94373e-01
 n25bf                                  7      0.0000       0.00000       A     3.20800e-01     8.49240e-01
 n26bf                                  7      0.0000       0.00000       A     3.38251e-01     3.94826e-01
 c27bf                                  6      0.0000       0.00000       A     3.31301e-01     4.12308e-01
 c28bf                                  6      0.0000       0.00000       A     3.31301e-01     4.12308e-01
 n29bf                                  7      0.0000       0.00000       A     3.38251e-01     3.94826e-01
 h30bf                                  1      0.0000       0.00000       A     2.59993e-01     8.72348e-02
 h31bf                                  1      0.0000       0.00000       A     2.59993e-01     8.72348e-02
 h32bf                                  1      0.0000       0.00000       A     2.59993e-01     8.72348e-02
 h33bf                                  1      0.0000       0.00000       A     2.62468e-01     6.71770e-02
 h34bf                                  1      0.0000       0.00000       A     2.62493e-01     6.79894e-02
 h35bf                                  1      0.0000       0.00000       A     2.62501e-01     6.75201e-02
 h36bf                                  1      0.0000       0.00000       A     2.42171e-01     8.72571e-02
 h37bf                                  1      0.0000       0.00000       A     2.42171e-01     8.72571e-02
 h38bf                                  1      0.0000       0.00000       A     2.60149e-01     8.67575e-02
 h39bf                                  1      0.0000       0.00000       A     2.42127e-01     8.72842e-02
 h40bf                                  1      0.0000       0.00000       A     2.42127e-01     8.72842e-02
 h41bf                                  1      0.0000       0.00000       A     2.42127e-01     8.72842e-02
 h42bf                                  1      0.0000       0.00000       A     2.42127e-01     8.72842e-02
 h43bf                                  1      0.0000       0.00000       A     2.60149e-01     8.67575e-02
 h44bf                                  1      0.0000       0.00000       A     2.42171e-01     8.72571e-02
 h45bf                                  1      0.0000       0.00000       A     2.42171e-01     8.72571e-02
 h46bf                                  1      0.0000       0.00000       A     2.59989e-01     8.71151e-02
 h47bf                                  1      0.0000       0.00000       A     2.59989e-01     8.71151e-02
 h48bf                                  1      0.0000       0.00000       A     2.59989e-01     8.71151e-02
 h49bf                                  1      0.0000       0.00000       A     2.62556e-01     6.77132e-02
 h50bf                                  1      0.0000       0.00000       A     2.59989e-01     8.71151e-02
 h51bf                                  1      0.0000       0.00000       A     2.59989e-01     8.71151e-02
 h52bf                                  1      0.0000       0.00000       A     2.59989e-01     8.71151e-02
 h53bf                                  1      0.0000       0.00000       A     2.53896e-01     6.74946e-02
 h54bf                                  1      0.0000       0.00000       A     2.53896e-01     6.74946e-02

[ moleculetype ]
;name             nrexcl
 set_2_12              3

[ atoms ]
;       nr            type      resi   res      atom      cgnr      charge          mass ; qtot
         1            c0bf         1   UNL        c0         1    -0.04584       12.0110 ; qtot   -0.046
         2            c1bf         1   UNL        c1         2    -0.07061       12.0110 ; qtot   -0.116
         3            c2bf         1   UNL        c2         3    -0.09600       12.0110 ; qtot   -0.212
         4            c3bf         1   UNL        c3         4    -0.09117       12.0110 ; qtot   -0.304
         5            c4bf         1   UNL        c4         5     0.04932       12.0110 ; qtot   -0.254
         6            c5bf         1   UNL        c5         6    -0.12611       12.0110 ; qtot   -0.380
         7            c6bf         1   UNL        c6         7    -0.07168       12.0110 ; qtot   -0.452
         8            c7bf         1   UNL        c7         8     0.62941       12.0110 ; qtot    0.177
         9            o8bf         1   UNL        o8         9    -0.59102       15.9990 ; qtot   -0.414
        10            n9bf         1   UNL        n9        10    -0.41110       14.0070 ; qtot   -0.825
        11           c10bf         1   UNL       c10        11     0.10928       12.0110 ; qtot   -0.716
        12           c11bf         1   UNL       c11        12    -0.10223       12.0110 ; qtot   -0.818
        13           c12bf         1   UNL       c12        13     0.23669       12.0110 ; qtot   -0.581
        14           n13bf         1   UNL       n13        14    -0.78178       14.0070 ; qtot   -1.363
        15           c14bf         1   UNL       c14        15     0.23669       12.0110 ; qtot   -1.126
        16           c15bf         1   UNL       c15        16    -0.10223       12.0110 ; qtot   -1.228
        17           c16bf         1   UNL       c16        17     0.10928       12.0110 ; qtot   -1.119
        18           c17bf         1   UNL       c17        18     0.38591       12.0110 ; qtot   -0.733
        19           n18bf         1   UNL       n18        19    -0.25087       14.0070 ; qtot   -0.984
        20           c19bf         1   UNL       c19        20     0.16283       12.0110 ; qtot   -0.821
        21           c20bf         1   UNL       c20        21    -0.15050       12.0110 ; qtot   -0.972
        22           c21bf         1   UNL       c21        22    -0.27614       12.0110 ; qtot   -1.248
        23           c22bf         1   UNL       c22        23     0.16283       12.0110 ; qtot   -1.085
        24           c23bf         1   UNL       c23        24    -0.15050       12.0110 ; qtot   -1.236
        25           n24bf         1   UNL       n24        25    -0.25087       14.0070 ; qtot   -1.486
        26           n25bf         1   UNL       n25        26     0.31258       14.0070 ; qtot   -1.174
        27           n26bf         1   UNL       n26        27    -0.47997       14.0070 ; qtot   -1.654
        28           c27bf         1   UNL       c27        28     0.20629       12.0110 ; qtot   -1.448
        29           c28bf         1   UNL       c28        29     0.20629       12.0110 ; qtot   -1.241
        30           n29bf         1   UNL       n29        30    -0.47997       14.0070 ; qtot   -1.721
        31           h30bf         1   UNL       h30        31     0.04379        1.0080 ; qtot   -1.677
        32           h31bf         1   UNL       h31        32     0.04379        1.0080 ; qtot   -1.634
        33           h32bf         1   UNL       h32        33     0.04379        1.0080 ; qtot   -1.590
        34           h33bf         1   UNL       h33        34     0.11994        1.0080 ; qtot   -1.470
        35           h34bf         1   UNL       h34        35     0.13849        1.0080 ; qtot   -1.331
        36           h35bf         1   UNL       h35        36     0.12812        1.0080 ; qtot   -1.203
        37           h36bf         1   UNL       h36        37     0.06015        1.0080 ; qtot   -1.143
        38           h37bf         1   UNL       h37        38     0.06015        1.0080 ; qtot   -1.083
        39           h38bf         1   UNL       h38        39     0.07208        1.0080 ; qtot   -1.011
        40           h39bf         1   UNL       h39        40     0.05798        1.0080 ; qtot   -0.953
        41           h40bf         1   UNL       h40        41     0.05798        1.0080 ; qtot   -0.895
        42           h41bf         1   UNL       h41        42     0.05798        1.0080 ; qtot   -0.837
        43           h42bf         1   UNL       h42        43     0.05798        1.0080 ; qtot   -0.779
        44           h43bf         1   UNL       h43        44     0.07208        1.0080 ; qtot   -0.707
        45           h44bf         1   UNL       h44        45     0.06015        1.0080 ; qtot   -0.647
        46           h45bf         1   UNL       h45        46     0.06015        1.0080 ; qtot   -0.587
        47           h46bf         1   UNL       h46        47     0.05717        1.0080 ; qtot   -0.529
        48           h47bf         1   UNL       h47        48     0.05717        1.0080 ; qtot   -0.472
        49           h48bf         1   UNL       h48        49     0.05717        1.0080 ; qtot   -0.415
        50           h49bf         1   UNL       h49        50     0.13105        1.0080 ; qtot   -0.284
        51           h50bf         1   UNL       h50        51     0.05717        1.0080 ; qtot   -0.227
        52           h51bf         1   UNL       h51        52     0.05717        1.0080 ; qtot   -0.170
        53           h52bf         1   UNL       h52        53     0.05717        1.0080 ; qtot   -0.113
        54           h53bf         1   UNL       h53        54     0.05626        1.0080 ; qtot   -0.056
        55           h54bf         1   UNL       h54        55     0.05626        1.0080 ; qtot    0.000

[ bonds ]
;       ai        aj funct               r               k
         1         2     1        0.151102   206449.819312
         1        31     1        0.109447   299223.903174
         1        32     1        0.109447   299223.903174
         1        33     1        0.109447   299223.903174
         2         3     1        0.140369   287539.117871
         2         7     1        0.139944   296609.081934
         3         4     1        0.139371   322373.752490
         3        34     1        0.108680   316922.294678
         4         5     1        0.139916   294068.752441
         4        35     1        0.108426   325189.908301
         5         6     1        0.140379   276214.737793
         5        26     1        0.142493   228284.264893
         6         7     1        0.140068   295853.004736
         6         8     1        0.151124   179502.410303
         7        36     1        0.108605   318499.568701
         8         9     1        0.123432   589589.187402
         8        10     1        0.136038   307841.119824
        10        11     1        0.147342   175956.876343
        10        17     1        0.147342   175956.850806
        11        12     1        0.153427   175080.787500
        11        37     1        0.109385   298254.744336
        11        38     1        0.109385   298254.744336
        12        13     1        0.153334   175036.020947
        12        16     1        0.154277   149842.117554
        12        39     1        0.109325   303915.912891
        13        14     1        0.146885   181060.582568
        13        40     1        0.109481   294444.837451
        13        41     1        0.109481   294444.837451
        14        15     1        0.146885   181060.557031
        14        18     1        0.136150   322423.090186
        15        16     1        0.153334   175036.020947
        15        42     1        0.109481   294444.786377
        15        43     1        0.109481   294444.811914
        16        17     1        0.153427   175080.787500
        16        44     1        0.109325   303915.912891
        17        45     1        0.109385   298254.744336
        17        46     1        0.109385   298254.744336
        18        19     1        0.135061   255154.819971
        18        25     1        0.135061   255154.794434
        19        20     1        0.133745   333057.585254
        20        21     1        0.150694   207469.771460
        20        22     1        0.140051   285005.530176
        21        47     1        0.109354   305309.983691
        21        48     1        0.109354   305309.983691
        21        49     1        0.109354   305309.983691
        22        23     1        0.140051   285005.530176
        22        50     1        0.108514   321723.577686
        23        24     1        0.150694   207469.733154
        23        25     1        0.133745   333057.585254
        24        51     1        0.109354   305309.958154
        24        52     1        0.109354   305309.958154
        24        53     1        0.109354   305309.958154
        26        27     1        0.134008   245778.844727
        26        30     1        0.134008   245778.844727
        27        28     1        0.133423   350873.549609
        28        29     1        0.141148   279463.543311
        28        54     1        0.108128   339085.415625
        29        30     1        0.133423   350873.549609
        29        55     1        0.108128   339085.415625

[ angles ]
;       ai        aj        ak funct           theta             cth
         1         2         3     1      120.966713      464.667018
         1         2         7     1      120.961159      467.447147
         2         1        31     1      111.217812      480.577690
         2         1        32     1      111.217812      480.577690
         2         1        33     1      111.217812      480.577690
         2         3         4     1      120.892456      721.061160
         2         3        34     1      119.705528      414.294431
         2         7         6     1      121.869736      706.908749
         2         7        36     1      119.751137      392.974679
         3         2         7     1      118.005600      731.729862
         3         4         5     1      120.067551      674.363044
         3         4        35     1      120.935898      417.944865
         4         3        34     1      119.400414      435.063794
         4         5         6     1      120.428322      650.721682
         4         5        26     1      118.152016      537.122085
         5         4        35     1      118.972946      416.902951
         5         6         7     1      118.345970      694.003252
         5         6         8     1      123.675049      542.631334
         5        26        27     1      122.146194      519.463876
         5        26        30     1      122.146194      519.463876
         6         5        26     1      120.792953      461.505108
         6         7        36     1      118.338463      376.916115
         6         8         9     1      120.143898      511.266784
         6         8        10     1      116.973923      443.981544
         7         6         8     1      118.047874      546.947744
         8        10        11     1      123.328659      462.963980
         8        10        17     1      123.328659      462.963948
         9         8        10     1      122.618942      633.743526
        10        11        12     1      103.395767      529.540756
        10        11        37     1      110.442825      438.278692
        10        11        38     1      110.442825      438.278692
        10        17        16     1      103.395767      529.540756
        10        17        45     1      110.442825      438.278692
        10        17        46     1      110.442825      438.278692
        11        10        17     1      111.329147      405.322829
        11        12        13     1      115.967918      490.766039
        11        12        16     1      103.849319      536.391532
        11        12        39     1      110.495773      465.529246
        12        11        37     1      112.216675      453.127053
        12        11        38     1      112.216675      453.127053
        12        13        14     1      102.892921      518.507927
        12        13        40     1      112.134521      456.886371
        12        13        41     1      112.134521      456.886371
        12        16        15     1      103.531944      553.400524
        12        16        17     1      103.849319      536.391532
        12        16        44     1      111.068626      475.836438
        13        12        16     1      103.531944      553.400524
        13        12        39     1      110.411415      471.837167
        13        14        15     1      113.053551      339.130578
        13        14        18     1      122.793289      492.092788
        14        13        40     1      110.665466      411.334967
        14        13        41     1      110.665466      411.334967
        14        15        16     1      102.892921      518.507959
        14        15        42     1      110.665466      411.334967
        14        15        43     1      110.665466      411.334967
        14        18        19     1      116.861961      541.920827
        14        18        25     1      116.861961      541.920827
        15        14        18     1      122.793289      492.092788
        15        16        17     1      115.967918      490.766103
        15        16        44     1      110.411415      471.837167
        16        12        39     1      111.068642      475.836438
        16        15        42     1      112.134521      456.886371
        16        15        43     1      112.134521      456.886371
        16        17        45     1      112.216675      453.127053
        16        17        46     1      112.216675      453.127053
        17        16        44     1      110.495773      465.529246
        18        19        20     1      116.614647      960.079055
        18        25        23     1      116.614647      960.079055
        19        18        25     1      126.191666      604.351846
        19        20        21     1      116.354942      475.838162
        19        20        22     1      121.655540      736.540223
        20        21        47     1      110.547607      500.572608
        20        21        48     1      110.547607      500.572608
        20        21        49     1      110.547607      500.572608
        20        22        23     1      117.478683      761.775676
        20        22        50     1      121.294067      418.995525
        21        20        22     1      122.040428      489.957215
        22        23        24     1      122.040443      489.957215
        22        23        25     1      121.655540      736.540223
        23        22        50     1      121.294067      418.995493
        23        24        51     1      110.547607      500.572608
        23        24        52     1      110.547607      500.572608
        23        24        53     1      110.547607      500.572608
        24        23        25     1      116.354942      475.838226
        26        27        28     1      103.763977      481.378757
        26        30        29     1      103.763977      481.378693
        27        26        30     1      115.024330      214.892174
        27        28        29     1      108.709312      295.765725
        27        28        54     1      120.742882      391.073984
        28        29        30     1      108.709312      295.765725
        28        29        55     1      130.286758      343.611766
        29        28        54     1      130.286758      343.611734
        30        29        55     1      120.742882      391.074016
        31         1        32     1      107.649277      362.939847
        31         1        33     1      107.649277      362.939847
        32         1        33     1      107.649277      362.939847
        37        11        38     1      107.816490      348.007916
        40        13        41     1      107.788414      347.454303
        42        15        43     1      107.788414      347.454335
        45        17        46     1      107.816490      348.007916
        47        21        48     1      108.389893      359.969498
        47        21        49     1      108.389893      359.969498
        48        21        49     1      108.389893      359.969498
        51        24        52     1      108.389893      359.969466
        51        24        53     1      108.389893      359.969466
        52        24        53     1      108.389893      359.969498

[ dihedrals ] ; propers for gromacs 4.5 or higher, use funct 9
;       ai        aj        ak        al funct           phase               k        pn
         1         2         3         4     9        0.000000        0.158675         1
         1         2         3         4     9      180.000000       15.454689         2
         1         2         3         4     9        0.000000       -0.328577         3
         1         2         3         4     9      180.000000       -0.135958         4
         1         2         3        34     9        0.000000       -0.210171         1
         1         2         3        34     9      180.000000       12.798626         2
         1         2         3        34     9        0.000000       -0.446446         3
         1         2         3        34     9      180.000000        0.247412         4
         1         2         7         6     9        0.000000       -0.016693         1
         1         2         7         6     9      180.000000       15.754018         2
         1         2         7         6     9        0.000000       -0.316104         3
         1         2         7         6     9      180.000000       -0.332141         4
         1         2         7        36     9        0.000000       -0.223671         1
         1         2         7        36     9      180.000000       13.246963         2
         1         2         7        36     9        0.000000       -0.385696         3
         1         2         7        36     9      180.000000        0.242382         4
         2         3         4         5     9        0.000000       -0.097755         1
         2         3         4         5     9      180.000000       18.296120         2
         2         3         4         5     9        0.000000       -1.782629         3
         2         3         4         5     9      180.000000       -0.396022         4
         2         3         4        35     9        0.000000        0.129503         1
         2         3         4        35     9      180.000000       14.768324         2
         2         3         4        35     9        0.000000       -0.707062         3
         2         3         4        35     9      180.000000        0.142938         4
         2         7         6         5     9        0.000000       -0.029320         1
         2         7         6         5     9      180.000000       18.478678         2
         2         7         6         5     9        0.000000       -1.580097         3
         2         7         6         5     9      180.000000       -0.444197         4
         2         7         6         8     9        0.000000       -0.023362         1
         2         7         6         8     9      180.000000       15.668697         2
         2         7         6         8     9        0.000000       -0.276824         3
         2         7         6         8     9      180.000000       -0.462948         4
         3         2         1        31     9        0.000000       -0.024772         1
         3         2         1        31     9      180.000000        0.003812         2
         3         2         1        31     9        0.000000       -0.013540         3
         3         2         1        31     9      180.000000       -0.002105         4
         3         2         1        32     9        0.000000       -0.024772         1
         3         2         1        32     9      180.000000        0.003812         2
         3         2         1        32     9        0.000000       -0.013540         3
         3         2         1        32     9      180.000000       -0.002105         4
         3         2         1        33     9        0.000000       -0.024772         1
         3         2         1        33     9      180.000000        0.003812         2
         3         2         1        33     9        0.000000       -0.013540         3
         3         2         1        33     9      180.000000       -0.002105         4
         3         2         7         6     9        0.000000        0.014021         1
         3         2         7         6     9      180.000000       18.749655         2
         3         2         7         6     9        0.000000       -1.324668         3
         3         2         7         6     9      180.000000       -0.576320         4
         3         2         7        36     9        0.000000        0.022486         1
         3         2         7        36     9      180.000000       14.779398         2
         3         2         7        36     9        0.000000       -0.443814         3
         3         2         7        36     9      180.000000       -0.008545         4
         3         4         5         6     9        0.000000       -0.127567         1
         3         4         5         6     9      180.000000       17.242816         2
         3         4         5         6     9        0.000000       -1.502951         3
         3         4         5         6     9      180.000000       -0.211168         4
         3         4         5        26     9        0.000000        0.261557         1
         3         4         5        26     9      180.000000       18.285356         2
         3         4         5        26     9        0.000000        0.061217         3
         3         4         5        26     9      180.000000       -0.386450         4
         4         3         2         7     9        0.000000       -0.012068         1
         4         3         2         7     9      180.000000       18.079968         2
         4         3         2         7     9        0.000000       -1.486163         3
         4         3         2         7     9      180.000000       -0.268136         4
         4         5         6         7     9        0.000000        0.013511         1
         4         5         6         7     9      180.000000       16.169108         2
         4         5         6         7     9        0.000000       -1.168153         3
         4         5         6         7     9      180.000000       -0.243981         4
         4         5         6         8     9        0.000000       -0.363318         1
         4         5         6         8     9      180.000000       11.013180         2
         4         5         6         8     9        0.000000       -0.315042         3
         4         5         6         8     9      180.000000       -0.215110         4
         4         5        26        27     9        0.000000        0.694882         1
         4         5        26        27     9      180.000000        2.928472         2
         4         5        26        27     9        0.000000       -0.343248         3
         4         5        26        27     9      180.000000        0.051099         4
         4         5        26        30     9        0.000000        0.694882         1
         4         5        26        30     9      180.000000        2.928471         2
         4         5        26        30     9        0.000000       -0.343248         3
         4         5        26        30     9      180.000000        0.051098         4
         5         4         3        34     9        0.000000       -0.037421         1
         5         4         3        34     9      180.000000       14.871645         2
         5         4         3        34     9        0.000000       -0.638330         3
         5         4         3        34     9      180.000000        0.015157         4
         5         6         7        36     9        0.000000        0.271952         1
         5         6         7        36     9      180.000000       14.420708         2
         5         6         7        36     9        0.000000       -0.263926         3
         5         6         7        36     9      180.000000        0.007780         4
         5         6         8         9     9        0.000000       -7.243558         1
         5         6         8         9     9      180.000000        1.695100         2
         5         6         8         9     9        0.000000        0.072166         3
         5         6         8         9     9      180.000000       -0.095717         4
         5         6         8        10     9        0.000000       -0.705677         1
         5         6         8        10     9      180.000000        3.992479         2
         5         6         8        10     9        0.000000       -0.759088         3
         5         6         8        10     9      180.000000        0.162374         4
         5        26        27        28     9        0.000000        0.649020         1
         5        26        27        28     9      180.000000       14.870844         2
         5        26        27        28     9        0.000000        0.374293         3
         5        26        27        28     9      180.000000       -0.217924         4
         5        26        30        29     9        0.000000        0.649021         1
         5        26        30        29     9      180.000000       14.870846         2
         5        26        30        29     9        0.000000        0.374292         3
         5        26        30        29     9      180.000000       -0.217923         4
         6         5         4        35     9        0.000000        0.149599         1
         6         5         4        35     9      180.000000       13.648088         2
         6         5         4        35     9        0.000000       -0.582930         3
         6         5         4        35     9      180.000000        0.169775         4
         6         5        26        27     9        0.000000       -0.747594         1
         6         5        26        27     9      180.000000        3.423537         2
         6         5        26        27     9        0.000000        0.209779         3
         6         5        26        27     9      180.000000       -0.128607         4
         6         5        26        30     9        0.000000       -0.747594         1
         6         5        26        30     9      180.000000        3.423537         2
         6         5        26        30     9        0.000000        0.209779         3
         6         5        26        30     9      180.000000       -0.128607         4
         6         8        10        11     9        0.000000        5.656388         1
         6         8        10        11     9      180.000000       11.503891         2
         6         8        10        11     9        0.000000        1.564670         3
         6         8        10        11     9      180.000000       -0.450721         4
         6         8        10        17     9        0.000000        5.656390         1
         6         8        10        17     9      180.000000       11.503893         2
         6         8        10        17     9        0.000000        1.564670         3
         6         8        10        17     9      180.000000       -0.450722         4
         7         2         1        31     9        0.000000       -0.040594         1
         7         2         1        31     9      180.000000        0.006542         2
         7         2         1        31     9        0.000000       -0.024946         3
         7         2         1        31     9      180.000000        0.003397         4
         7         2         1        32     9        0.000000       -0.040594         1
         7         2         1        32     9      180.000000        0.006542         2
         7         2         1        32     9        0.000000       -0.024946         3
         7         2         1        32     9      180.000000        0.003397         4
         7         2         1        33     9        0.000000       -0.040594         1
         7         2         1        33     9      180.000000        0.006542         2
         7         2         1        33     9        0.000000       -0.024946         3
         7         2         1        33     9      180.000000        0.003397         4
         7         2         3        34     9        0.000000       -0.048528         1
         7         2         3        34     9      180.000000       14.428393         2
         7         2         3        34     9        0.000000       -0.619750         3
         7         2         3        34     9      180.000000        0.072737         4
         7         6         5        26     9        0.000000        0.215434         1
         7         6         5        26     9      180.000000       16.997185         2
         7         6         5        26     9        0.000000       -0.035147         3
         7         6         5        26     9      180.000000       -0.522533         4
         7         6         8         9     9        0.000000        0.909767         1
         7         6         8         9     9      180.000000        1.368228         2
         7         6         8         9     9        0.000000        0.489278         3
         7         6         8         9     9      180.000000        0.026820         4
         7         6         8        10     9        0.000000        1.687826         1
         7         6         8        10     9      180.000000        3.607046         2
         7         6         8        10     9        0.000000        0.142176         3
         7         6         8        10     9      180.000000        0.074489         4
         8         6         5        26     9        0.000000       -0.033001         1
         8         6         5        26     9      180.000000       15.271404         2
         8         6         5        26     9        0.000000        0.468152         3
         8         6         5        26     9      180.000000       -0.881540         4
         8         6         7        36     9        0.000000       -0.043691         1
         8         6         7        36     9      180.000000       12.540582         2
         8         6         7        36     9        0.000000       -0.370619         3
         8         6         7        36     9      180.000000        0.131292         4
         8        10        11        12     9        0.000000       -1.021399         1
         8        10        11        12     9      180.000000       -0.750101         2
         8        10        11        12     9        0.000000        0.091827         3
         8        10        11        12     9      180.000000        0.167275         4
         8        10        11        37     9        0.000000        0.042349         1
         8        10        11        37     9      180.000000        0.088286         2
         8        10        11        37     9        0.000000        0.094861         3
         8        10        11        37     9      180.000000       -0.011379         4
         8        10        11        38     9        0.000000        0.042349         1
         8        10        11        38     9      180.000000        0.088286         2
         8        10        11        38     9        0.000000        0.094861         3
         8        10        11        38     9      180.000000       -0.011379         4
         8        10        17        16     9        0.000000       -1.021399         1
         8        10        17        16     9      180.000000       -0.750101         2
         8        10        17        16     9        0.000000        0.091827         3
         8        10        17        16     9      180.000000        0.167275         4
         8        10        17        45     9        0.000000        0.042349         1
         8        10        17        45     9      180.000000        0.088285         2
         8        10        17        45     9        0.000000        0.094862         3
         8        10        17        45     9      180.000000       -0.011378         4
         8        10        17        46     9        0.000000        0.042349         1
         8        10        17        46     9      180.000000        0.088285         2
         8        10        17        46     9        0.000000        0.094862         3
         8        10        17        46     9      180.000000       -0.011378         4
         9         8        10        11     9        0.000000       -1.648170         1
         9         8        10        11     9      180.000000       13.618238         2
         9         8        10        11     9        0.000000       -1.080126         3
         9         8        10        11     9      180.000000       -0.212143         4
         9         8        10        17     9        0.000000       -1.648170         1
         9         8        10        17     9      180.000000       13.618238         2
         9         8        10        17     9        0.000000       -1.080125         3
         9         8        10        17     9      180.000000       -0.212142         4
        10        11        12        13     9        0.000000       -0.410987         1
        10        11        12        13     9      180.000000       -1.385796         2
        10        11        12        13     9        0.000000        0.136984         3
        10        11        12        13     9      180.000000        0.093039         4
        10        11        12        16     9        0.000000       -2.854017         1
        10        11        12        16     9      180.000000        7.702165         2
        10        11        12        16     9        0.000000       -0.708711         3
        10        11        12        16     9      180.000000       -1.169470         4
        10        11        12        39     9        0.000000        0.989398         1
        10        11        12        39     9      180.000000       -0.387239         2
        10        11        12        39     9        0.000000       -0.055241         3
        10        11        12        39     9      180.000000        0.255012         4
        10        17        16        12     9        0.000000       -2.854018         1
        10        17        16        12     9      180.000000        7.702168         2
        10        17        16        12     9        0.000000       -0.708712         3
        10        17        16        12     9      180.000000       -1.169471         4
        10        17        16        15     9        0.000000       -0.410988         1
        10        17        16        15     9      180.000000       -1.385796         2
        10        17        16        15     9        0.000000        0.136984         3
        10        17        16        15     9      180.000000        0.093039         4
        10        17        16        44     9        0.000000        0.989396         1
        10        17        16        44     9      180.000000       -0.387238         2
        10        17        16        44     9        0.000000       -0.055241         3
        10        17        16        44     9      180.000000        0.255011         4
        11        10        17        16     9        0.000000       -0.115320         1
        11        10        17        16     9      180.000000       -0.195851         2
        11        10        17        16     9        0.000000        0.225772         3
        11        10        17        16     9      180.000000       -0.049084         4
        11        10        17        45     9        0.000000       -0.036132         1
        11        10        17        45     9      180.000000       -0.000356         2
        11        10        17        45     9        0.000000        0.119649         3
        11        10        17        45     9      180.000000        0.062908         4
        11        10        17        46     9        0.000000       -0.036132         1
        11        10        17        46     9      180.000000       -0.000356         2
        11        10        17        46     9        0.000000        0.119649         3
        11        10        17        46     9      180.000000        0.062908         4
        11        12        13        14     9        0.000000        0.141092         1
        11        12        13        14     9      180.000000       -1.554592         2
        11        12        13        14     9        0.000000        0.129275         3
        11        12        13        14     9      180.000000        0.187853         4
        11        12        13        40     9        0.000000       -0.150868         1
        11        12        13        40     9      180.000000        0.072012         2
        11        12        13        40     9        0.000000        0.214875         3
        11        12        13        40     9      180.000000        0.045179         4
        11        12        13        41     9        0.000000       -0.150868         1
        11        12        13        41     9      180.000000        0.072012         2
        11        12        13        41     9        0.000000        0.214875         3
        11        12        13        41     9      180.000000        0.045179         4
        11        12        16        15     9        0.000000       -1.429698         1
        11        12        16        15     9      180.000000       -0.955407         2
        11        12        16        15     9        0.000000        0.546147         3
        11        12        16        15     9      180.000000       -0.724521         4
        11        12        16        17     9        0.000000       -0.903491         1
        11        12        16        17     9      180.000000       -0.930898         2
        11        12        16        17     9        0.000000        0.568820         3
        11        12        16        17     9      180.000000       -0.686259         4
        11        12        16        44     9        0.000000       -0.022163         1
        11        12        16        44     9      180.000000        0.142975         2
        11        12        16        44     9        0.000000        0.388150         3
        11        12        16        44     9      180.000000        0.197014         4
        12        11        10        17     9        0.000000       -0.115320         1
        12        11        10        17     9      180.000000       -0.195851         2
        12        11        10        17     9        0.000000        0.225772         3
        12        11        10        17     9      180.000000       -0.049084         4
        12        13        14        15     9        0.000000       -0.515519         1
        12        13        14        15     9      180.000000        0.695786         2
        12        13        14        15     9        0.000000        0.374724         3
        12        13        14        15     9      180.000000       -0.306280         4
        12        13        14        18     9        0.000000       -3.777482         1
        12        13        14        18     9      180.000000       -0.445032         2
        12        13        14        18     9        0.000000        0.410580         3
        12        13        14        18     9      180.000000        0.178916         4
        12        16        15        14     9        0.000000       -3.183876         1
        12        16        15        14     9      180.000000       11.770774         2
        12        16        15        14     9        0.000000       -0.669596         3
        12        16        15        14     9      180.000000       -2.371237         4
        12        16        15        42     9        0.000000        0.005453         1
        12        16        15        42     9      180.000000       -0.187956         2
        12        16        15        42     9        0.000000       -0.253494         3
        12        16        15        42     9      180.000000        0.289445         4
        12        16        15        43     9        0.000000        0.005453         1
        12        16        15        43     9      180.000000       -0.187956         2
        12        16        15        43     9        0.000000       -0.253494         3
        12        16        15        43     9      180.000000        0.289446         4
        12        16        17        45     9        0.000000        0.022483         1
        12        16        17        45     9      180.000000       -0.185435         2
        12        16        17        45     9        0.000000       -0.302149         3
        12        16        17        45     9      180.000000        0.229395         4
        12        16        17        46     9        0.000000        0.022483         1
        12        16        17        46     9      180.000000       -0.185435         2
        12        16        17        46     9        0.000000       -0.302149         3
        12        16        17        46     9      180.000000        0.229395         4
        13        12        11        37     9        0.000000       -0.090272         1
        13        12        11        37     9      180.000000        0.043313         2
        13        12        11        37     9        0.000000        0.181102         3
        13        12        11        37     9      180.000000        0.056845         4
        13        12        11        38     9        0.000000       -0.090272         1
        13        12        11        38     9      180.000000        0.043313         2
        13        12        11        38     9        0.000000        0.181102         3
        13        12        11        38     9      180.000000        0.056845         4
        13        12        16        15     9        0.000000       -1.723215         1
        13        12        16        15     9      180.000000       -1.104300         2
        13        12        16        15     9        0.000000        0.465854         3
        13        12        16        15     9      180.000000       -0.749204         4
        13        12        16        17     9        0.000000       -1.429696         1
        13        12        16        17     9      180.000000       -0.955407         2
        13        12        16        17     9        0.000000        0.546147         3
        13        12        16        17     9      180.000000       -0.724521         4
        13        12        16        44     9        0.000000        0.196399         1
        13        12        16        44     9      180.000000        0.124290         2
        13        12        16        44     9        0.000000        0.308842         3
        13        12        16        44     9      180.000000        0.285300         4
        13        14        15        16     9        0.000000       -0.515520         1
        13        14        15        16     9      180.000000        0.695785         2
        13        14        15        16     9        0.000000        0.374724         3
        13        14        15        16     9      180.000000       -0.306280         4
        13        14        15        42     9        0.000000       -0.040239         1
        13        14        15        42     9      180.000000       -0.063462         2
        13        14        15        42     9        0.000000        0.343610         3
        13        14        15        42     9      180.000000        0.107466         4
        13        14        15        43     9        0.000000       -0.040239         1
        13        14        15        43     9      180.000000       -0.063463         2
        13        14        15        43     9        0.000000        0.343610         3
        13        14        15        43     9      180.000000        0.107466         4
        13        14        18        19     9        0.000000        0.747628         1
        13        14        18        19     9      180.000000        9.366863         2
        13        14        18        19     9        0.000000       -0.095722         3
        13        14        18        19     9      180.000000       -1.018207         4
        13        14        18        25     9        0.000000        0.747628         1
        13        14        18        25     9      180.000000        9.366864         2
        13        14        18        25     9        0.000000       -0.095723         3
        13        14        18        25     9      180.000000       -1.018206         4
        14        13        12        16     9        0.000000       -3.183874         1
        14        13        12        16     9      180.000000       11.770770         2
        14        13        12        16     9        0.000000       -0.669596         3
        14        13        12        16     9      180.000000       -2.371236         4
        14        13        12        39     9        0.000000        3.046268         1
        14        13        12        39     9      180.000000       -0.789547         2
        14        13        12        39     9        0.000000       -0.188589         3
        14        13        12        39     9      180.000000        0.438255         4
        14        15        16        17     9        0.000000        0.141092         1
        14        15        16        17     9      180.000000       -1.554592         2
        14        15        16        17     9        0.000000        0.129275         3
        14        15        16        17     9      180.000000        0.187854         4
        14        15        16        44     9        0.000000        3.046267         1
        14        15        16        44     9      180.000000       -0.789546         2
        14        15        16        44     9        0.000000       -0.188588         3
        14        15        16        44     9      180.000000        0.438255         4
        14        18        19        20     9        0.000000        1.229501         1
        14        18        19        20     9      180.000000       16.103331         2
        14        18        19        20     9        0.000000        0.664455         3
        14        18        19        20     9      180.000000       -1.018198         4
        14        18        25        23     9        0.000000        1.229502         1
        14        18        25        23     9      180.000000       16.103329         2
        14        18        25        23     9        0.000000        0.664456         3
        14        18        25        23     9      180.000000       -1.018198         4
        15        14        13        40     9        0.000000       -0.040239         1
        15        14        13        40     9      180.000000       -0.063462         2
        15        14        13        40     9        0.000000        0.343610         3
        15        14        13        40     9      180.000000        0.107466         4
        15        14        13        41     9        0.000000       -0.040239         1
        15        14        13        41     9      180.000000       -0.063462         2
        15        14        13        41     9        0.000000        0.343610         3
        15        14        13        41     9      180.000000        0.107466         4
        15        14        18        19     9        0.000000        0.747627         1
        15        14        18        19     9      180.000000        9.366865         2
        15        14        18        19     9        0.000000       -0.095722         3
        15        14        18        19     9      180.000000       -1.018207         4
        15        14        18        25     9        0.000000        0.747630         1
        15        14        18        25     9      180.000000        9.366864         2
        15        14        18        25     9        0.000000       -0.095722         3
        15        14        18        25     9      180.000000       -1.018207         4
        15        16        12        39     9        0.000000        0.196399         1
        15        16        12        39     9      180.000000        0.124291         2
        15        16        12        39     9        0.000000        0.308842         3
        15        16        12        39     9      180.000000        0.285299         4
        15        16        17        45     9        0.000000       -0.090272         1
        15        16        17        45     9      180.000000        0.043313         2
        15        16        17        45     9        0.000000        0.181102         3
        15        16        17        45     9      180.000000        0.056845         4
        15        16        17        46     9        0.000000       -0.090272         1
        15        16        17        46     9      180.000000        0.043313         2
        15        16        17        46     9        0.000000        0.181102         3
        15        16        17        46     9      180.000000        0.056845         4
        16        12        11        37     9        0.000000        0.022484         1
        16        12        11        37     9      180.000000       -0.185435         2
        16        12        11        37     9        0.000000       -0.302149         3
        16        12        11        37     9      180.000000        0.229395         4
        16        12        11        38     9        0.000000        0.022484         1
        16        12        11        38     9      180.000000       -0.185435         2
        16        12        11        38     9        0.000000       -0.302149         3
        16        12        11        38     9      180.000000        0.229395         4
        16        12        13        40     9        0.000000        0.005453         1
        16        12        13        40     9      180.000000       -0.187956         2
        16        12        13        40     9        0.000000       -0.253494         3
        16        12        13        40     9      180.000000        0.289446         4
        16        12        13        41     9        0.000000        0.005453         1
        16        12        13        41     9      180.000000       -0.187956         2
        16        12        13        41     9        0.000000       -0.253494         3
        16        12        13        41     9      180.000000        0.289446         4
        16        15        14        18     9        0.000000       -3.777480         1
        16        15        14        18     9      180.000000       -0.445033         2
        16        15        14        18     9        0.000000        0.410580         3
        16        15        14        18     9      180.000000        0.178916         4
        17        10        11        37     9        0.000000       -0.036131         1
        17        10        11        37     9      180.000000       -0.000356         2
        17        10        11        37     9        0.000000        0.119649         3
        17        10        11        37     9      180.000000        0.062908         4
        17        10        11        38     9        0.000000       -0.036131         1
        17        10        11        38     9      180.000000       -0.000356         2
        17        10        11        38     9        0.000000        0.119649         3
        17        10        11        38     9      180.000000        0.062908         4
        17        16        12        39     9        0.000000       -0.022163         1
        17        16        12        39     9      180.000000        0.142976         2
        17        16        12        39     9        0.000000        0.388150         3
        17        16        12        39     9      180.000000        0.197014         4
        17        16        15        42     9        0.000000       -0.150867         1
        17        16        15        42     9      180.000000        0.072012         2
        17        16        15        42     9        0.000000        0.214876         3
        17        16        15        42     9      180.000000        0.045179         4
        17        16        15        43     9        0.000000       -0.150868         1
        17        16        15        43     9      180.000000        0.072013         2
        17        16        15        43     9        0.000000        0.214876         3
        17        16        15        43     9      180.000000        0.045179         4
        18        14        13        40     9        0.000000       -0.010160         1
        18        14        13        40     9      180.000000       -0.080811         2
        18        14        13        40     9        0.000000        0.536714         3
        18        14        13        40     9      180.000000       -0.022062         4
        18        14        13        41     9        0.000000       -0.010160         1
        18        14        13        41     9      180.000000       -0.080811         2
        18        14        13        41     9        0.000000        0.536714         3
        18        14        13        41     9      180.000000       -0.022062         4
        18        14        15        42     9        0.000000       -0.010161         1
        18        14        15        42     9      180.000000       -0.080811         2
        18        14        15        42     9        0.000000        0.536714         3
        18        14        15        42     9      180.000000       -0.022063         4
        18        14        15        43     9        0.000000       -0.010161         1
        18        14        15        43     9      180.000000       -0.080811         2
        18        14        15        43     9        0.000000        0.536714         3
        18        14        15        43     9      180.000000       -0.022062         4
        18        19        20        21     9        0.000000       -0.024261         1
        18        19        20        21     9      180.000000       17.595206         2
        18        19        20        21     9        0.000000        0.133710         3
        18        19        20        21     9      180.000000       -0.526294         4
        18        19        20        22     9        0.000000       -0.379284         1
        18        19        20        22     9      180.000000       19.341467         2
        18        19        20        22     9        0.000000       -1.106329         3
        18        19        20        22     9      180.000000       -0.500796         4
        18        25        23        22     9        0.000000       -0.379284         1
        18        25        23        22     9      180.000000       19.341467         2
        18        25        23        22     9        0.000000       -1.106329         3
        18        25        23        22     9      180.000000       -0.500796         4
        18        25        23        24     9        0.000000       -0.024262         1
        18        25        23        24     9      180.000000       17.595210         2
        18        25        23        24     9        0.000000        0.133710         3
        18        25        23        24     9      180.000000       -0.526294         4
        19        18        25        23     9        0.000000        0.513199         1
        19        18        25        23     9      180.000000        9.191426         2
        19        18        25        23     9        0.000000        0.738957         3
        19        18        25        23     9      180.000000       -0.519149         4
        19        20        21        47     9        0.000000        0.003881         1
        19        20        21        47     9      180.000000       -0.062736         2
        19        20        21        47     9        0.000000        0.023444         3
        19        20        21        47     9      180.000000       -0.007650         4
        19        20        21        48     9        0.000000        0.003881         1
        19        20        21        48     9      180.000000       -0.062736         2
        19        20        21        48     9        0.000000        0.023444         3
        19        20        21        48     9      180.000000       -0.007650         4
        19        20        21        49     9        0.000000        0.003881         1
        19        20        21        49     9      180.000000       -0.062736         2
        19        20        21        49     9        0.000000        0.023444         3
        19        20        21        49     9      180.000000       -0.007650         4
        19        20        22        23     9        0.000000       -0.062247         1
        19        20        22        23     9      180.000000       14.568155         2
        19        20        22        23     9        0.000000       -0.276619         3
        19        20        22        23     9      180.000000       -0.509286         4
        19        20        22        50     9        0.000000       -0.034010         1
        19        20        22        50     9      180.000000       12.223299         2
        19        20        22        50     9        0.000000       -0.267637         3
        19        20        22        50     9      180.000000       -0.072661         4
        20        19        18        25     9        0.000000        0.513200         1
        20        19        18        25     9      180.000000        9.191426         2
        20        19        18        25     9        0.000000        0.738957         3
        20        19        18        25     9      180.000000       -0.519149         4
        20        22        23        24     9        0.000000        0.256556         1
        20        22        23        24     9      180.000000       13.179426         2
        20        22        23        24     9        0.000000       -0.097633         3
        20        22        23        24     9      180.000000       -0.317869         4
        20        22        23        25     9        0.000000       -0.062248         1
        20        22        23        25     9      180.000000       14.568153         2
        20        22        23        25     9        0.000000       -0.276618         3
        20        22        23        25     9      180.000000       -0.509287         4
        21        20        22        23     9        0.000000        0.256556         1
        21        20        22        23     9      180.000000       13.179428         2
        21        20        22        23     9        0.000000       -0.097633         3
        21        20        22        23     9      180.000000       -0.317869         4
        21        20        22        50     9        0.000000       -0.223957         1
        21        20        22        50     9      180.000000       11.375068         2
        21        20        22        50     9        0.000000       -0.534832         3
        21        20        22        50     9      180.000000        0.134009         4
        22        20        21        47     9        0.000000       -0.025287         1
        22        20        21        47     9      180.000000       -0.035803         2
        22        20        21        47     9        0.000000       -0.089579         3
        22        20        21        47     9      180.000000        0.005712         4
        22        20        21        48     9        0.000000       -0.025287         1
        22        20        21        48     9      180.000000       -0.035803         2
        22        20        21        48     9        0.000000       -0.089579         3
        22        20        21        48     9      180.000000        0.005712         4
        22        20        21        49     9        0.000000       -0.025287         1
        22        20        21        49     9      180.000000       -0.035803         2
        22        20        21        49     9        0.000000       -0.089579         3
        22        20        21        49     9      180.000000        0.005712         4
        22        23        24        51     9        0.000000       -0.025287         1
        22        23        24        51     9      180.000000       -0.035803         2
        22        23        24        51     9        0.000000       -0.089578         3
        22        23        24        51     9      180.000000        0.005712         4
        22        23        24        52     9        0.000000       -0.025287         1
        22        23        24        52     9      180.000000       -0.035803         2
        22        23        24        52     9        0.000000       -0.089578         3
        22        23        24        52     9      180.000000        0.005712         4
        22        23        24        53     9        0.000000       -0.025287         1
        22        23        24        53     9      180.000000       -0.035803         2
        22        23        24        53     9        0.000000       -0.089578         3
        22        23        24        53     9      180.000000        0.005712         4
        24        23        22        50     9        0.000000       -0.223957         1
        24        23        22        50     9      180.000000       11.375068         2
        24        23        22        50     9        0.000000       -0.534831         3
        24        23        22        50     9      180.000000        0.134009         4
        25        23        22        50     9        0.000000       -0.034010         1
        25        23        22        50     9      180.000000       12.223298         2
        25        23        22        50     9        0.000000       -0.267637         3
        25        23        22        50     9      180.000000       -0.072661         4
        25        23        24        51     9        0.000000        0.003880         1
        25        23        24        51     9      180.000000       -0.062734         2
        25        23        24        51     9        0.000000        0.023445         3
        25        23        24        51     9      180.000000       -0.007650         4
        25        23        24        52     9        0.000000        0.003880         1
        25        23        24        52     9      180.000000       -0.062734         2
        25        23        24        52     9        0.000000        0.023445         3
        25        23        24        52     9      180.000000       -0.007650         4
        25        23        24        53     9        0.000000        0.003880         1
        25        23        24        53     9      180.000000       -0.062734         2
        25        23        24        53     9        0.000000        0.023445         3
        25        23        24        53     9      180.000000       -0.007650         4
        26         5         4        35     9        0.000000        0.206730         1
        26         5         4        35     9      180.000000       14.275220         2
        26         5         4        35     9        0.000000       -0.023679         3
        26         5         4        35     9      180.000000        0.184075         4
        26        27        28        29     9        0.000000       -0.112463         1
        26        27        28        29     9      180.000000       41.052444         2
        26        27        28        29     9        0.000000       -5.890512         3
        26        27        28        29     9      180.000000       -0.008107         4
        26        27        28        54     9        0.000000        1.292620         1
        26        27        28        54     9      180.000000       26.526206         2
        26        27        28        54     9        0.000000       -0.133153         3
        26        27        28        54     9      180.000000       -0.139937         4
        26        30        29        28     9        0.000000       -0.112463         1
        26        30        29        28     9      180.000000       41.052452         2
        26        30        29        28     9        0.000000       -5.890512         3
        26        30        29        28     9      180.000000       -0.008108         4
        26        30        29        55     9        0.000000        1.292620         1
        26        30        29        55     9      180.000000       26.526210         2
        26        30        29        55     9        0.000000       -0.133154         3
        26        30        29        55     9      180.000000       -0.139938         4
        27        26        30        29     9        0.000000       -0.219545         1
        27        26        30        29     9      180.000000       33.423013         2
        27        26        30        29     9        0.000000       -5.623654         3
        27        26        30        29     9      180.000000        0.093807         4
        27        28        29        30     9        0.000000       -0.646394         1
        27        28        29        30     9      180.000000       33.879572         2
        27        28        29        30     9        0.000000       -7.997883         3
        27        28        29        30     9      180.000000       -0.068922         4
        27        28        29        55     9        0.000000        0.399472         1
        27        28        29        55     9      180.000000       15.777787         2
        27        28        29        55     9        0.000000       -0.622625         3
        27        28        29        55     9      180.000000       -0.473181         4
        28        27        26        30     9        0.000000       -0.219545         1
        28        27        26        30     9      180.000000       33.423013         2
        28        27        26        30     9        0.000000       -5.623654         3
        28        27        26        30     9      180.000000        0.093808         4
        30        29        28        54     9        0.000000        0.399472         1
        30        29        28        54     9      180.000000       15.777786         2
        30        29        28        54     9        0.000000       -0.622624         3
        30        29        28        54     9      180.000000       -0.473181         4
        34         3         4        35     9        0.000000       -0.201525         1
        34         3         4        35     9      180.000000       12.167824         2
        34         3         4        35     9        0.000000       -0.859059         3
        34         3         4        35     9      180.000000        0.304559         4
        37        11        12        39     9        0.000000       -0.086594         1
        37        11        12        39     9      180.000000        0.026398         2
        37        11        12        39     9        0.000000        0.269152         3
        37        11        12        39     9      180.000000       -0.020189         4
        38        11        12        39     9        0.000000       -0.086594         1
        38        11        12        39     9      180.000000        0.026398         2
        38        11        12        39     9        0.000000        0.269152         3
        38        11        12        39     9      180.000000       -0.020189         4
        39        12        13        40     9        0.000000       -0.140740         1
        39        12        13        40     9      180.000000       -0.009946         2
        39        12        13        40     9        0.000000        0.295617         3
        39        12        13        40     9      180.000000       -0.018107         4
        39        12        13        41     9        0.000000       -0.140740         1
        39        12        13        41     9      180.000000       -0.009946         2
        39        12        13        41     9        0.000000        0.295617         3
        39        12        13        41     9      180.000000       -0.018107         4
        39        12        16        44     9        0.000000        0.223574         1
        39        12        16        44     9      180.000000       -0.077959         2
        39        12        16        44     9        0.000000        0.353694         3
        39        12        16        44     9      180.000000       -0.057173         4
        42        15        16        44     9        0.000000       -0.140741         1
        42        15        16        44     9      180.000000       -0.009947         2
        42        15        16        44     9        0.000000        0.295617         3
        42        15        16        44     9      180.000000       -0.018107         4
        43        15        16        44     9        0.000000       -0.140741         1
        43        15        16        44     9      180.000000       -0.009947         2
        43        15        16        44     9        0.000000        0.295617         3
        43        15        16        44     9      180.000000       -0.018107         4
        44        16        17        45     9        0.000000       -0.086595         1
        44        16        17        45     9      180.000000        0.026399         2
        44        16        17        45     9        0.000000        0.269152         3
        44        16        17        45     9      180.000000       -0.020189         4
        44        16        17        46     9        0.000000       -0.086595         1
        44        16        17        46     9      180.000000        0.026399         2
        44        16        17        46     9        0.000000        0.269152         3
        44        16        17        46     9      180.000000       -0.020189         4
        54        28        29        55     9        0.000000       -0.304766         1
        54        28        29        55     9      180.000000        8.321254         2
        54        28        29        55     9        0.000000       -0.141498         3
        54        28        29        55     9      180.000000        0.273252         4

[ dihedrals ] ; impropers
;       ai        aj        ak        al funct           phase               k        pn
         3         2         4        34     4      180.000000        0.147458         2
         3         4        34         2     4      180.000000        0.147458         2
         3        34         2         4     4      180.000000        0.147458         2
         4         3         5        35     4      180.000000        0.095885         2
         4         5        35         3     4      180.000000        0.095885         2
         4        35         3         5     4      180.000000        0.095885         2
         7         2         6        36     4      180.000000        0.610777         2
         7         6        36         2     4      180.000000        0.610777         2
         7        36         2         6     4      180.000000        0.610777         2
        18        14        19        25     4      180.000000       27.893333         2
        18        19        25        14     4      180.000000       27.893333         2
        18        25        14        19     4      180.000000       27.893333         2
        20        19        21        22     4      180.000000       21.793922         2
        20        21        22        19     4      180.000000       21.793922         2
        20        22        19        21     4      180.000000       21.793922         2
        23        22        24        25     4      180.000000       21.793922         2
        23        24        25        22     4      180.000000       21.793922         2
        23        25        22        24     4      180.000000       21.793922         2

[ pairs ]
;       ai        aj funct
         1         4     1
         1         6     1
         1        34     1
         1        36     1
         2         5     1
         2         8     1
         2        35     1
         3         6     1
         3        26     1
         3        31     1
         3        32     1
         3        33     1
         3        36     1
         4         7     1
         4         8     1
         4        27     1
         4        30     1
         5         9     1
         5        10     1
         5        28     1
         5        29     1
         5        34     1
         5        36     1
         6        11     1
         6        17     1
         6        27     1
         6        30     1
         6        35     1
         7         9     1
         7        10     1
         7        26     1
         7        31     1
         7        32     1
         7        33     1
         7        34     1
         8        12     1
         8        16     1
         8        26     1
         8        36     1
         8        37     1
         8        38     1
         8        45     1
         8        46     1
         9        11     1
         9        17     1
        10        13     1
        10        15     1
        10        39     1
        10        44     1
        11        14     1
        11        15     1
        11        40     1
        11        41     1
        11        44     1
        11        45     1
        11        46     1
        12        18     1
        12        42     1
        12        43     1
        12        45     1
        12        46     1
        13        17     1
        13        19     1
        13        25     1
        13        37     1
        13        38     1
        13        42     1
        13        43     1
        13        44     1
        14        17     1
        14        20     1
        14        23     1
        14        39     1
        14        44     1
        15        19     1
        15        25     1
        15        39     1
        15        40     1
        15        41     1
        15        45     1
        15        46     1
        16        18     1
        16        37     1
        16        38     1
        16        40     1
        16        41     1
        17        37     1
        17        38     1
        17        39     1
        17        42     1
        17        43     1
        18        21     1
        18        22     1
        18        24     1
        18        40     1
        18        41     1
        18        42     1
        18        43     1
        19        23     1
        19        47     1
        19        48     1
        19        49     1
        19        50     1
        20        24     1
        20        25     1
        21        23     1
        21        50     1
        22        47     1
        22        48     1
        22        49     1
        22        51     1
        22        52     1
        22        53     1
        24        50     1
        25        50     1
        25        51     1
        25        52     1
        25        53     1
        26        35     1
        26        54     1
        26        55     1
        27        55     1
        30        54     1
        34        35     1
        37        39     1
        38        39     1
        39        40     1
        39        41     1
        39        44     1
        42        44     1
        43        44     1
        44        45     1
        44        46     1
        54        55     1
