; ITP file created by ByteFF-ML, 2025-12-06 04:44:03.438569

[ atomtypes ]
;name           bonded.type        at.num        mass        charge   ptype           sigma         epsilon
 c0bf                                   6      0.0000       0.00000       A     3.39799e-01     4.50095e-01
 o1bf                                   8      0.0000       0.00000       A     3.15798e-01     3.03663e-01
 c2bf                                   6      0.0000       0.00000       A     3.31414e-01     4.13261e-01
 c3bf                                   6      0.0000       0.00000       A     3.31437e-01     4.13679e-01
 c4bf                                   6      0.0000       0.00000       A     3.31513e-01     4.11567e-01
 c5bf                                   6      0.0000       0.00000       A     3.31360e-01     4.09863e-01
 o6bf                                   8      0.0000       0.00000       A     3.04770e-01     6.12733e-01
 n7bf                                   7      0.0000       0.00000       A     3.18141e-01     6.81151e-01
 c8bf                                   6      0.0000       0.00000       A     3.39727e-01     4.50795e-01
 c9bf                                   6      0.0000       0.00000       A     3.39712e-01     4.49806e-01
 c10bf                                  6      0.0000       0.00000       A     3.39585e-01     4.49212e-01
 n11bf                                  7      0.0000       0.00000       A     3.19428e-01     8.94136e-01
 c12bf                                  6      0.0000       0.00000       A     3.39585e-01     4.49212e-01
 c13bf                                  6      0.0000       0.00000       A     3.39712e-01     4.49806e-01
 c14bf                                  6      0.0000       0.00000       A     3.39727e-01     4.50797e-01
 c15bf                                  6      0.0000       0.00000       A     3.31548e-01     4.12659e-01
 n16bf                                  7      0.0000       0.00000       A     3.38255e-01     3.94373e-01
 c17bf                                  6      0.0000       0.00000       A     3.31356e-01     4.11183e-01
 c18bf                                  6      0.0000       0.00000       A     3.39813e-01     4.50976e-01
 c19bf                                  6      0.0000       0.00000       A     3.31508e-01     4.12834e-01
 c20bf                                  6      0.0000       0.00000       A     3.31356e-01     4.11183e-01
 c21bf                                  6      0.0000       0.00000       A     3.39813e-01     4.50976e-01
 n22bf                                  7      0.0000       0.00000       A     3.38255e-01     3.94373e-01
 c23bf                                  6      0.0000       0.00000       A     3.31461e-01     4.14051e-01
 c24bf                                  6      0.0000       0.00000       A     3.31350e-01     4.12490e-01
 c25bf                                  6      0.0000       0.00000       A     3.31358e-01     4.12134e-01
 o26bf                                  8      0.0000       0.00000       A     3.15833e-01     3.04257e-01
 c27bf                                  6      0.0000       0.00000       A     3.39799e-01     4.50095e-01
 n28bf                                  7      0.0000       0.00000       A     3.20895e-01     8.50659e-01
 n29bf                                  7      0.0000       0.00000       A     3.38251e-01     3.94826e-01
 c30bf                                  6      0.0000       0.00000       A     3.31301e-01     4.12308e-01
 c31bf                                  6      0.0000       0.00000       A     3.31301e-01     4.12308e-01
 n32bf                                  7      0.0000       0.00000       A     3.38251e-01     3.94826e-01
 h33bf                                  1      0.0000       0.00000       A     2.42080e-01     8.75859e-02
 h34bf                                  1      0.0000       0.00000       A     2.42080e-01     8.75859e-02
 h35bf                                  1      0.0000       0.00000       A     2.42080e-01     8.75859e-02
 h36bf                                  1      0.0000       0.00000       A     2.62579e-01     6.76318e-02
 h37bf                                  1      0.0000       0.00000       A     2.42171e-01     8.72571e-02
 h38bf                                  1      0.0000       0.00000       A     2.42171e-01     8.72571e-02
 h39bf                                  1      0.0000       0.00000       A     2.60149e-01     8.67575e-02
 h40bf                                  1      0.0000       0.00000       A     2.42127e-01     8.72842e-02
 h41bf                                  1      0.0000       0.00000       A     2.42127e-01     8.72842e-02
 h42bf                                  1      0.0000       0.00000       A     2.42127e-01     8.72842e-02
 h43bf                                  1      0.0000       0.00000       A     2.42127e-01     8.72842e-02
 h44bf                                  1      0.0000       0.00000       A     2.60149e-01     8.67575e-02
 h45bf                                  1      0.0000       0.00000       A     2.42171e-01     8.72571e-02
 h46bf                                  1      0.0000       0.00000       A     2.42171e-01     8.72571e-02
 h47bf                                  1      0.0000       0.00000       A     2.59989e-01     8.71151e-02
 h48bf                                  1      0.0000       0.00000       A     2.59989e-01     8.71151e-02
 h49bf                                  1      0.0000       0.00000       A     2.59989e-01     8.71151e-02
 h50bf                                  1      0.0000       0.00000       A     2.62556e-01     6.77132e-02
 h51bf                                  1      0.0000       0.00000       A     2.59989e-01     8.71151e-02
 h52bf                                  1      0.0000       0.00000       A     2.59989e-01     8.71151e-02
 h53bf                                  1      0.0000       0.00000       A     2.59989e-01     8.71151e-02
 h54bf                                  1      0.0000       0.00000       A     2.62591e-01     6.76590e-02
 h55bf                                  1      0.0000       0.00000       A     2.42080e-01     8.75859e-02
 h56bf                                  1      0.0000       0.00000       A     2.42080e-01     8.75859e-02
 h57bf                                  1      0.0000       0.00000       A     2.42080e-01     8.75859e-02
 h58bf                                  1      0.0000       0.00000       A     2.53897e-01     6.74946e-02
 h59bf                                  1      0.0000       0.00000       A     2.53897e-01     6.74946e-02

[ moleculetype ]
;name             nrexcl
 set_2_10              3

[ atoms ]
;       nr            type      resi   res      atom      cgnr      charge          mass ; qtot
         1            c0bf         1   UNL        c0         1     0.14173       12.0110 ; qtot    0.142
         2            o1bf         1   UNL        o1         2    -0.33558       15.9990 ; qtot   -0.194
         3            c2bf         1   UNL        c2         3     0.08984       12.0110 ; qtot   -0.104
         4            c3bf         1   UNL        c3         4    -0.11658       12.0110 ; qtot   -0.221
         5            c4bf         1   UNL        c4         5    -0.11493       12.0110 ; qtot   -0.336
         6            c5bf         1   UNL        c5         6     0.63071       12.0110 ; qtot    0.295
         7            o6bf         1   UNL        o6         7    -0.59110       15.9990 ; qtot   -0.296
         8            n7bf         1   UNL        n7         8    -0.41065       14.0070 ; qtot   -0.707
         9            c8bf         1   UNL        c8         9     0.10928       12.0110 ; qtot   -0.597
        10            c9bf         1   UNL        c9        10    -0.10223       12.0110 ; qtot   -0.700
        11           c10bf         1   UNL       c10        11     0.23669       12.0110 ; qtot   -0.463
        12           n11bf         1   UNL       n11        12    -0.78178       14.0070 ; qtot   -1.245
        13           c12bf         1   UNL       c12        13     0.23669       12.0110 ; qtot   -1.008
        14           c13bf         1   UNL       c13        14    -0.10223       12.0110 ; qtot   -1.110
        15           c14bf         1   UNL       c14        15     0.10928       12.0110 ; qtot   -1.001
        16           c15bf         1   UNL       c15        16     0.38591       12.0110 ; qtot   -0.615
        17           n16bf         1   UNL       n16        17    -0.25087       14.0070 ; qtot   -0.866
        18           c17bf         1   UNL       c17        18     0.16283       12.0110 ; qtot   -0.703
        19           c18bf         1   UNL       c18        19    -0.15050       12.0110 ; qtot   -0.853
        20           c19bf         1   UNL       c19        20    -0.27614       12.0110 ; qtot   -1.130
        21           c20bf         1   UNL       c20        21     0.16283       12.0110 ; qtot   -0.967
        22           c21bf         1   UNL       c21        22    -0.15050       12.0110 ; qtot   -1.117
        23           n22bf         1   UNL       n22        23    -0.25087       14.0070 ; qtot   -1.368
        24           c23bf         1   UNL       c23        24     0.07284       12.0110 ; qtot   -1.295
        25           c24bf         1   UNL       c24        25    -0.14431       12.0110 ; qtot   -1.440
        26           c25bf         1   UNL       c25        26     0.11163       12.0110 ; qtot   -1.328
        27           o26bf         1   UNL       o26        27    -0.33501       15.9990 ; qtot   -1.663
        28           c27bf         1   UNL       c27        28     0.14211       12.0110 ; qtot   -1.521
        29           n28bf         1   UNL       n28        29     0.30952       14.0070 ; qtot   -1.211
        30           n29bf         1   UNL       n29        30    -0.47972       14.0070 ; qtot   -1.691
        31           c30bf         1   UNL       c30        31     0.20629       12.0110 ; qtot   -1.485
        32           c31bf         1   UNL       c31        32     0.20629       12.0110 ; qtot   -1.279
        33           n32bf         1   UNL       n32        33    -0.47972       14.0070 ; qtot   -1.758
        34           h33bf         1   UNL       h33        34     0.04404        1.0080 ; qtot   -1.714
        35           h34bf         1   UNL       h34        35     0.04404        1.0080 ; qtot   -1.670
        36           h35bf         1   UNL       h35        36     0.04404        1.0080 ; qtot   -1.626
        37           h36bf         1   UNL       h36        37     0.14194        1.0080 ; qtot   -1.484
        38           h37bf         1   UNL       h37        38     0.06015        1.0080 ; qtot   -1.424
        39           h38bf         1   UNL       h38        39     0.06015        1.0080 ; qtot   -1.364
        40           h39bf         1   UNL       h39        40     0.07208        1.0080 ; qtot   -1.292
        41           h40bf         1   UNL       h40        41     0.05798        1.0080 ; qtot   -1.234
        42           h41bf         1   UNL       h41        42     0.05798        1.0080 ; qtot   -1.176
        43           h42bf         1   UNL       h42        43     0.05798        1.0080 ; qtot   -1.118
        44           h43bf         1   UNL       h43        44     0.05798        1.0080 ; qtot   -1.060
        45           h44bf         1   UNL       h44        45     0.07208        1.0080 ; qtot   -0.988
        46           h45bf         1   UNL       h45        46     0.06015        1.0080 ; qtot   -0.928
        47           h46bf         1   UNL       h46        47     0.06015        1.0080 ; qtot   -0.868
        48           h47bf         1   UNL       h47        48     0.05717        1.0080 ; qtot   -0.810
        49           h48bf         1   UNL       h48        49     0.05717        1.0080 ; qtot   -0.753
        50           h49bf         1   UNL       h49        50     0.05717        1.0080 ; qtot   -0.696
        51           h50bf         1   UNL       h50        51     0.13105        1.0080 ; qtot   -0.565
        52           h51bf         1   UNL       h51        52     0.05717        1.0080 ; qtot   -0.508
        53           h52bf         1   UNL       h52        53     0.05717        1.0080 ; qtot   -0.451
        54           h53bf         1   UNL       h53        54     0.05717        1.0080 ; qtot   -0.393
        55           h54bf         1   UNL       h54        55     0.14880        1.0080 ; qtot   -0.245
        56           h55bf         1   UNL       h55        56     0.04404        1.0080 ; qtot   -0.201
        57           h56bf         1   UNL       h56        57     0.04404        1.0080 ; qtot   -0.157
        58           h57bf         1   UNL       h57        58     0.04404        1.0080 ; qtot   -0.113
        59           h58bf         1   UNL       h58        59     0.05626        1.0080 ; qtot   -0.056
        60           h59bf         1   UNL       h59        60     0.05626        1.0080 ; qtot    0.000

[ bonds ]
;       ai        aj funct               r               k
         1         2     1        0.142810   204542.707983
         1        34     1        0.109386   299034.366748
         1        35     1        0.109386   299034.366748
         1        36     1        0.109386   299034.366748
         2         3     1        0.136729   275146.520508
         3         4     1        0.139204   309117.362402
         3        26     1        0.141673   249377.840625
         4         5     1        0.140312   295027.211230
         4        37     1        0.108370   324828.353906
         5         6     1        0.151077   179365.646313
         5        24     1        0.140176   280420.750781
         6         7     1        0.123428   589901.199805
         6         8     1        0.136009   308455.900195
         8         9     1        0.147342   175956.876343
         8        15     1        0.147342   175956.876343
         9        10     1        0.153427   175080.787500
         9        38     1        0.109385   298254.744336
         9        39     1        0.109385   298254.744336
        10        11     1        0.153334   175036.020947
        10        14     1        0.154277   149842.117554
        10        40     1        0.109325   303915.912891
        11        12     1        0.146885   181060.582568
        11        41     1        0.109481   294444.837451
        11        42     1        0.109481   294444.837451
        12        13     1        0.146885   181060.557031
        12        16     1        0.136150   322423.090186
        13        14     1        0.153334   175036.020947
        13        43     1        0.109481   294444.837451
        13        44     1        0.109481   294444.837451
        14        15     1        0.153427   175080.787500
        14        45     1        0.109325   303915.887354
        15        46     1        0.109385   298254.744336
        15        47     1        0.109385   298254.744336
        16        17     1        0.135061   255154.794434
        16        23     1        0.135061   255154.794434
        17        18     1        0.133745   333057.585254
        18        19     1        0.150694   207469.771460
        18        20     1        0.140051   285005.530176
        19        48     1        0.109354   305309.983691
        19        49     1        0.109354   305309.983691
        19        50     1        0.109354   305309.983691
        20        21     1        0.140051   285005.530176
        20        51     1        0.108514   321723.577686
        21        22     1        0.150694   207469.733154
        21        23     1        0.133745   333057.585254
        22        52     1        0.109354   305309.983691
        22        53     1        0.109354   305309.983691
        22        54     1        0.109354   305309.983691
        24        25     1        0.140096   291750.085059
        24        29     1        0.142506   228541.576807
        25        26     1        0.139149   312972.112451
        25        55     1        0.108184   329560.099365
        26        27     1        0.136538   277264.721582
        27        28     1        0.142800   204608.555420
        28        56     1        0.109386   299034.341211
        28        57     1        0.109386   299034.341211
        28        58     1        0.109386   299034.341211
        29        30     1        0.134041   245356.716309
        29        33     1        0.134041   245356.716309
        30        31     1        0.133423   350873.498535
        31        32     1        0.141148   279463.543311
        31        59     1        0.108128   339085.441162
        32        33     1        0.133423   350873.498535
        32        60     1        0.108128   339085.441162

[ angles ]
;       ai        aj        ak funct           theta             cth
         1         2         3     1      117.109848      546.598268
         2         1        34     1      109.377563      448.791203
         2         1        35     1      109.377563      448.791203
         2         1        36     1      109.377563      448.791203
         2         3         4     1      123.686050      477.670673
         2         3        26     1      116.717613      405.619124
         3         4         5     1      121.362564      721.762345
         3         4        37     1      120.189064      406.246570
         3        26        25     1      119.381912      662.738233
         3        26        27     1      116.903099      396.346727
         4         3        26     1      119.128464      669.515845
         4         5         6     1      117.725258      528.671856
         4         5        24     1      118.074631      657.356414
         5         4        37     1      118.716774      377.540433
         5         6         7     1      120.184021      509.035383
         5         6         8     1      116.988815      442.258747
         5        24        25     1      120.868309      609.522089
         5        24        29     1      120.821190      461.941282
         6         5        24     1      123.856102      538.998616
         6         8         9     1      123.327103      463.511495
         6         8        15     1      123.327103      463.511495
         7         6         8     1      122.657425      633.201501
         8         9        10     1      103.395767      529.540756
         8         9        38     1      110.442825      438.278692
         8         9        39     1      110.442825      438.278692
         8        15        14     1      103.395767      529.540756
         8        15        46     1      110.442825      438.278692
         8        15        47     1      110.442825      438.278692
         9         8        15     1      111.329147      405.322861
         9        10        11     1      115.967918      490.766039
         9        10        14     1      103.849319      536.391532
         9        10        40     1      110.495773      465.529246
        10         9        38     1      112.216675      453.127053
        10         9        39     1      112.216675      453.127053
        10        11        12     1      102.892921      518.507927
        10        11        41     1      112.134521      456.886371
        10        11        42     1      112.134521      456.886371
        10        14        13     1      103.531944      553.400524
        10        14        15     1      103.849319      536.391532
        10        14        45     1      111.068626      475.836438
        11        10        14     1      103.531944      553.400524
        11        10        40     1      110.411415      471.837167
        11        12        13     1      113.053551      339.130578
        11        12        16     1      122.793289      492.092788
        12        11        41     1      110.665466      411.334967
        12        11        42     1      110.665466      411.334967
        12        13        14     1      102.892921      518.507959
        12        13        43     1      110.665466      411.334999
        12        13        44     1      110.665466      411.334999
        12        16        17     1      116.861961      541.920827
        12        16        23     1      116.861961      541.920827
        13        12        16     1      122.793289      492.092788
        13        14        15     1      115.967918      490.766103
        13        14        45     1      110.411415      471.837167
        14        10        40     1      111.068642      475.836438
        14        13        43     1      112.134521      456.886371
        14        13        44     1      112.134521      456.886371
        14        15        46     1      112.216675      453.127085
        14        15        47     1      112.216675      453.127085
        15        14        45     1      110.495773      465.529246
        16        17        18     1      116.614647      960.079055
        16        23        21     1      116.614647      960.079055
        17        16        23     1      126.191666      604.351846
        17        18        19     1      116.354942      475.838162
        17        18        20     1      121.655540      736.540223
        18        19        48     1      110.547607      500.572608
        18        19        49     1      110.547607      500.572608
        18        19        50     1      110.547607      500.572608
        18        20        21     1      117.478683      761.775676
        18        20        51     1      121.294067      418.995525
        19        18        20     1      122.040428      489.957215
        20        21        22     1      122.040443      489.957215
        20        21        23     1      121.655540      736.540223
        21        20        51     1      121.294067      418.995525
        21        22        52     1      110.547607      500.572608
        21        22        53     1      110.547607      500.572608
        21        22        54     1      110.547607      500.572608
        22        21        23     1      116.354942      475.838226
        24        25        26     1      120.481644      725.275294
        24        25        55     1      118.925552      418.359811
        24        29        30     1      122.166733      520.455834
        24        29        33     1      122.166733      520.455834
        25        24        29     1      117.563110      512.237992
        25        26        27     1      123.529068      452.761394
        26        25        55     1      120.805771      414.197549
        26        27        28     1      117.281349      546.669006
        27        28        56     1      109.385033      448.465445
        27        28        57     1      109.385033      448.465445
        27        28        58     1      109.385033      448.465445
        29        30        31     1      103.754639      480.969589
        29        33        32     1      103.754623      480.969589
        30        29        33     1      115.032143      216.324630
        30        31        32     1      108.709312      295.765725
        30        31        59     1      120.742882      391.074016
        31        32        33     1      108.709312      295.765661
        31        32        60     1      130.286758      343.611766
        32        31        59     1      130.286743      343.611766
        33        32        60     1      120.742874      391.073952
        34         1        35     1      109.654236      343.283135
        34         1        36     1      109.654236      343.283135
        35         1        36     1      109.654236      343.283135
        38         9        39     1      107.816490      348.007916
        41        11        42     1      107.788414      347.454303
        43        13        44     1      107.788414      347.454335
        46        15        47     1      107.816490      348.007916
        48        19        49     1      108.389893      359.969498
        48        19        50     1      108.389893      359.969498
        49        19        50     1      108.389893      359.969498
        52        22        53     1      108.389893      359.969466
        52        22        54     1      108.389893      359.969466
        53        22        54     1      108.389893      359.969466
        56        28        57     1      109.654221      343.283104
        56        28        58     1      109.654221      343.283104
        57        28        58     1      109.654221      343.283104

[ dihedrals ] ; propers for gromacs 4.5 or higher, use funct 9
;       ai        aj        ak        al funct           phase               k        pn
         1         2         3         4     9        0.000000       -0.587103         1
         1         2         3         4     9      180.000000        4.780044         2
         1         2         3         4     9        0.000000       -0.855836         3
         1         2         3         4     9      180.000000        0.423432         4
         1         2         3        26     9        0.000000        0.772427         1
         1         2         3        26     9      180.000000        3.619951         2
         1         2         3        26     9        0.000000        1.202073         3
         1         2         3        26     9      180.000000        0.060199         4
         2         3         4         5     9        0.000000        0.291062         1
         2         3         4         5     9      180.000000       18.583199         2
         2         3         4         5     9        0.000000       -0.017054         3
         2         3         4         5     9      180.000000       -0.470751         4
         2         3         4        37     9        0.000000        0.139240         1
         2         3         4        37     9      180.000000       13.773802         2
         2         3         4        37     9        0.000000       -0.081323         3
         2         3         4        37     9      180.000000        0.230850         4
         2         3        26        25     9        0.000000        0.127166         1
         2         3        26        25     9      180.000000       12.838573         2
         2         3        26        25     9        0.000000       -0.093588         3
         2         3        26        25     9      180.000000        0.023761         4
         2         3        26        27     9        0.000000       -0.260370         1
         2         3        26        27     9      180.000000       15.932568         2
         2         3        26        27     9        0.000000       -0.277315         3
         2         3        26        27     9      180.000000       -0.129309         4
         3         2         1        34     9        0.000000       -0.002621         1
         3         2         1        34     9      180.000000       -0.013483         2
         3         2         1        34     9        0.000000        0.487582         3
         3         2         1        34     9      180.000000       -0.002627         4
         3         2         1        35     9        0.000000       -0.002621         1
         3         2         1        35     9      180.000000       -0.013483         2
         3         2         1        35     9        0.000000        0.487582         3
         3         2         1        35     9      180.000000       -0.002627         4
         3         2         1        36     9        0.000000       -0.002621         1
         3         2         1        36     9      180.000000       -0.013483         2
         3         2         1        36     9        0.000000        0.487582         3
         3         2         1        36     9      180.000000       -0.002627         4
         3         4         5         6     9        0.000000       -0.283770         1
         3         4         5         6     9      180.000000       15.818848         2
         3         4         5         6     9        0.000000       -0.239366         3
         3         4         5         6     9      180.000000       -0.664150         4
         3         4         5        24     9        0.000000       -0.357076         1
         3         4         5        24     9      180.000000       18.404790         2
         3         4         5        24     9        0.000000       -1.822578         3
         3         4         5        24     9      180.000000       -0.445337         4
         3        26        25        24     9        0.000000       -0.368081         1
         3        26        25        24     9      180.000000       16.584291         2
         3        26        25        24     9        0.000000       -1.557525         3
         3        26        25        24     9      180.000000       -0.302410         4
         3        26        25        55     9        0.000000        0.193401         1
         3        26        25        55     9      180.000000       13.152230         2
         3        26        25        55     9        0.000000       -0.374684         3
         3        26        25        55     9      180.000000        0.241100         4
         3        26        27        28     9        0.000000        0.607920         1
         3        26        27        28     9      180.000000        3.899965         2
         3        26        27        28     9        0.000000        1.220409         3
         3        26        27        28     9      180.000000        0.050812         4
         4         3        26        25     9        0.000000        0.027767         1
         4         3        26        25     9      180.000000       11.257549         2
         4         3        26        25     9        0.000000       -0.547099         3
         4         3        26        25     9      180.000000        0.002276         4
         4         3        26        27     9        0.000000        0.173647         1
         4         3        26        27     9      180.000000       12.694320         2
         4         3        26        27     9        0.000000       -0.074867         3
         4         3        26        27     9      180.000000        0.046738         4
         4         5         6         7     9        0.000000        0.194925         1
         4         5         6         7     9      180.000000        1.785938         2
         4         5         6         7     9        0.000000        0.384805         3
         4         5         6         7     9      180.000000        0.095555         4
         4         5         6         8     9        0.000000        2.185095         1
         4         5         6         8     9      180.000000        4.150391         2
         4         5         6         8     9        0.000000        0.099741         3
         4         5         6         8     9      180.000000        0.121879         4
         4         5        24        25     9        0.000000       -0.092440         1
         4         5        24        25     9      180.000000       16.468397         2
         4         5        24        25     9        0.000000       -1.423863         3
         4         5        24        25     9      180.000000       -0.346469         4
         4         5        24        29     9        0.000000        0.035270         1
         4         5        24        29     9      180.000000       17.622054         2
         4         5        24        29     9        0.000000       -0.128589         3
         4         5        24        29     9      180.000000       -0.661709         4
         5         4         3        26     9        0.000000       -0.104495         1
         5         4         3        26     9      180.000000       16.414538         2
         5         4         3        26     9        0.000000       -1.359057         3
         5         4         3        26     9      180.000000       -0.355607         4
         5         6         8         9     9        0.000000        5.687443         1
         5         6         8         9     9      180.000000       11.542266         2
         5         6         8         9     9        0.000000        1.549315         3
         5         6         8         9     9      180.000000       -0.426989         4
         5         6         8        15     9        0.000000        5.687442         1
         5         6         8        15     9      180.000000       11.542266         2
         5         6         8        15     9        0.000000        1.549315         3
         5         6         8        15     9      180.000000       -0.426989         4
         5        24        25        26     9        0.000000       -0.317267         1
         5        24        25        26     9      180.000000       16.638139         2
         5        24        25        26     9        0.000000       -2.021184         3
         5        24        25        26     9      180.000000       -0.214642         4
         5        24        25        55     9        0.000000        0.199832         1
         5        24        25        55     9      180.000000       12.873568         2
         5        24        25        55     9        0.000000       -0.637881         3
         5        24        25        55     9      180.000000        0.193400         4
         5        24        29        30     9        0.000000       -0.515651         1
         5        24        29        30     9      180.000000        3.513789         2
         5        24        29        30     9        0.000000        0.192533         3
         5        24        29        30     9      180.000000       -0.110475         4
         5        24        29        33     9        0.000000       -0.515651         1
         5        24        29        33     9      180.000000        3.513789         2
         5        24        29        33     9        0.000000        0.192533         3
         5        24        29        33     9      180.000000       -0.110475         4
         6         5         4        37     9        0.000000       -0.037747         1
         6         5         4        37     9      180.000000       12.519706         2
         6         5         4        37     9        0.000000       -0.295528         3
         6         5         4        37     9      180.000000        0.070086         4
         6         5        24        25     9        0.000000       -0.576689         1
         6         5        24        25     9      180.000000       11.317622         2
         6         5        24        25     9        0.000000       -0.460937         3
         6         5        24        25     9      180.000000       -0.243120         4
         6         5        24        29     9        0.000000       -0.073274         1
         6         5        24        29     9      180.000000       15.417490         2
         6         5        24        29     9        0.000000        0.510922         3
         6         5        24        29     9      180.000000       -0.919152         4
         6         8         9        10     9        0.000000       -1.012202         1
         6         8         9        10     9      180.000000       -0.751157         2
         6         8         9        10     9        0.000000        0.089206         3
         6         8         9        10     9      180.000000        0.166147         4
         6         8         9        38     9        0.000000        0.043119         1
         6         8         9        38     9      180.000000        0.093570         2
         6         8         9        38     9        0.000000        0.096690         3
         6         8         9        38     9      180.000000       -0.009644         4
         6         8         9        39     9        0.000000        0.043119         1
         6         8         9        39     9      180.000000        0.093570         2
         6         8         9        39     9        0.000000        0.096690         3
         6         8         9        39     9      180.000000       -0.009644         4
         6         8        15        14     9        0.000000       -1.012202         1
         6         8        15        14     9      180.000000       -0.751156         2
         6         8        15        14     9        0.000000        0.089206         3
         6         8        15        14     9      180.000000        0.166147         4
         6         8        15        46     9        0.000000        0.043119         1
         6         8        15        46     9      180.000000        0.093568         2
         6         8        15        46     9        0.000000        0.096690         3
         6         8        15        46     9      180.000000       -0.009644         4
         6         8        15        47     9        0.000000        0.043119         1
         6         8        15        47     9      180.000000        0.093568         2
         6         8        15        47     9        0.000000        0.096690         3
         6         8        15        47     9      180.000000       -0.009644         4
         7         6         5        24     9        0.000000       -7.036867         1
         7         6         5        24     9      180.000000        1.765545         2
         7         6         5        24     9        0.000000        0.038134         3
         7         6         5        24     9      180.000000       -0.056184         4
         7         6         8         9     9        0.000000       -1.660036         1
         7         6         8         9     9      180.000000       13.579704         2
         7         6         8         9     9        0.000000       -1.070264         3
         7         6         8         9     9      180.000000       -0.206329         4
         7         6         8        15     9        0.000000       -1.660036         1
         7         6         8        15     9      180.000000       13.579703         2
         7         6         8        15     9        0.000000       -1.070264         3
         7         6         8        15     9      180.000000       -0.206328         4
         8         6         5        24     9        0.000000       -0.523982         1
         8         6         5        24     9      180.000000        4.214358         2
         8         6         5        24     9        0.000000       -0.701223         3
         8         6         5        24     9      180.000000        0.117380         4
         8         9        10        11     9        0.000000       -0.410988         1
         8         9        10        11     9      180.000000       -1.385797         2
         8         9        10        11     9        0.000000        0.136984         3
         8         9        10        11     9      180.000000        0.093039         4
         8         9        10        14     9        0.000000       -2.854018         1
         8         9        10        14     9      180.000000        7.702165         2
         8         9        10        14     9        0.000000       -0.708712         3
         8         9        10        14     9      180.000000       -1.169470         4
         8         9        10        40     9        0.000000        0.989397         1
         8         9        10        40     9      180.000000       -0.387239         2
         8         9        10        40     9        0.000000       -0.055241         3
         8         9        10        40     9      180.000000        0.255011         4
         8        15        14        10     9        0.000000       -2.854020         1
         8        15        14        10     9      180.000000        7.702167         2
         8        15        14        10     9        0.000000       -0.708711         3
         8        15        14        10     9      180.000000       -1.169471         4
         8        15        14        13     9        0.000000       -0.410988         1
         8        15        14        13     9      180.000000       -1.385796         2
         8        15        14        13     9        0.000000        0.136984         3
         8        15        14        13     9      180.000000        0.093039         4
         8        15        14        45     9        0.000000        0.989397         1
         8        15        14        45     9      180.000000       -0.387238         2
         8        15        14        45     9        0.000000       -0.055241         3
         8        15        14        45     9      180.000000        0.255012         4
         9         8        15        14     9        0.000000       -0.115320         1
         9         8        15        14     9      180.000000       -0.195851         2
         9         8        15        14     9        0.000000        0.225772         3
         9         8        15        14     9      180.000000       -0.049084         4
         9         8        15        46     9        0.000000       -0.036131         1
         9         8        15        46     9      180.000000       -0.000356         2
         9         8        15        46     9        0.000000        0.119649         3
         9         8        15        46     9      180.000000        0.062908         4
         9         8        15        47     9        0.000000       -0.036131         1
         9         8        15        47     9      180.000000       -0.000356         2
         9         8        15        47     9        0.000000        0.119649         3
         9         8        15        47     9      180.000000        0.062908         4
         9        10        11        12     9        0.000000        0.141092         1
         9        10        11        12     9      180.000000       -1.554592         2
         9        10        11        12     9        0.000000        0.129276         3
         9        10        11        12     9      180.000000        0.187853         4
         9        10        11        41     9        0.000000       -0.150867         1
         9        10        11        41     9      180.000000        0.072012         2
         9        10        11        41     9        0.000000        0.214875         3
         9        10        11        41     9      180.000000        0.045179         4
         9        10        11        42     9        0.000000       -0.150867         1
         9        10        11        42     9      180.000000        0.072012         2
         9        10        11        42     9        0.000000        0.214875         3
         9        10        11        42     9      180.000000        0.045179         4
         9        10        14        13     9        0.000000       -1.429697         1
         9        10        14        13     9      180.000000       -0.955406         2
         9        10        14        13     9        0.000000        0.546147         3
         9        10        14        13     9      180.000000       -0.724521         4
         9        10        14        15     9        0.000000       -0.903493         1
         9        10        14        15     9      180.000000       -0.930897         2
         9        10        14        15     9        0.000000        0.568821         3
         9        10        14        15     9      180.000000       -0.686259         4
         9        10        14        45     9        0.000000       -0.022164         1
         9        10        14        45     9      180.000000        0.142977         2
         9        10        14        45     9        0.000000        0.388150         3
         9        10        14        45     9      180.000000        0.197014         4
        10         9         8        15     9        0.000000       -0.115320         1
        10         9         8        15     9      180.000000       -0.195851         2
        10         9         8        15     9        0.000000        0.225772         3
        10         9         8        15     9      180.000000       -0.049084         4
        10        11        12        13     9        0.000000       -0.515519         1
        10        11        12        13     9      180.000000        0.695786         2
        10        11        12        13     9        0.000000        0.374724         3
        10        11        12        13     9      180.000000       -0.306280         4
        10        11        12        16     9        0.000000       -3.777482         1
        10        11        12        16     9      180.000000       -0.445032         2
        10        11        12        16     9        0.000000        0.410580         3
        10        11        12        16     9      180.000000        0.178916         4
        10        14        13        12     9        0.000000       -3.183876         1
        10        14        13        12     9      180.000000       11.770774         2
        10        14        13        12     9        0.000000       -0.669596         3
        10        14        13        12     9      180.000000       -2.371237         4
        10        14        13        43     9        0.000000        0.005453         1
        10        14        13        43     9      180.000000       -0.187956         2
        10        14        13        43     9        0.000000       -0.253494         3
        10        14        13        43     9      180.000000        0.289445         4
        10        14        13        44     9        0.000000        0.005453         1
        10        14        13        44     9      180.000000       -0.187956         2
        10        14        13        44     9        0.000000       -0.253494         3
        10        14        13        44     9      180.000000        0.289445         4
        10        14        15        46     9        0.000000        0.022483         1
        10        14        15        46     9      180.000000       -0.185435         2
        10        14        15        46     9        0.000000       -0.302149         3
        10        14        15        46     9      180.000000        0.229395         4
        10        14        15        47     9        0.000000        0.022483         1
        10        14        15        47     9      180.000000       -0.185435         2
        10        14        15        47     9        0.000000       -0.302149         3
        10        14        15        47     9      180.000000        0.229395         4
        11        10         9        38     9        0.000000       -0.090271         1
        11        10         9        38     9      180.000000        0.043314         2
        11        10         9        38     9        0.000000        0.181102         3
        11        10         9        38     9      180.000000        0.056845         4
        11        10         9        39     9        0.000000       -0.090271         1
        11        10         9        39     9      180.000000        0.043314         2
        11        10         9        39     9        0.000000        0.181102         3
        11        10         9        39     9      180.000000        0.056845         4
        11        10        14        13     9        0.000000       -1.723215         1
        11        10        14        13     9      180.000000       -1.104300         2
        11        10        14        13     9        0.000000        0.465854         3
        11        10        14        13     9      180.000000       -0.749204         4
        11        10        14        15     9        0.000000       -1.429696         1
        11        10        14        15     9      180.000000       -0.955407         2
        11        10        14        15     9        0.000000        0.546147         3
        11        10        14        15     9      180.000000       -0.724520         4
        11        10        14        45     9        0.000000        0.196399         1
        11        10        14        45     9      180.000000        0.124290         2
        11        10        14        45     9        0.000000        0.308842         3
        11        10        14        45     9      180.000000        0.285300         4
        11        12        13        14     9        0.000000       -0.515520         1
        11        12        13        14     9      180.000000        0.695785         2
        11        12        13        14     9        0.000000        0.374724         3
        11        12        13        14     9      180.000000       -0.306280         4
        11        12        13        43     9        0.000000       -0.040239         1
        11        12        13        43     9      180.000000       -0.063462         2
        11        12        13        43     9        0.000000        0.343610         3
        11        12        13        43     9      180.000000        0.107466         4
        11        12        13        44     9        0.000000       -0.040239         1
        11        12        13        44     9      180.000000       -0.063462         2
        11        12        13        44     9        0.000000        0.343610         3
        11        12        13        44     9      180.000000        0.107466         4
        11        12        16        17     9        0.000000        0.747628         1
        11        12        16        17     9      180.000000        9.366863         2
        11        12        16        17     9        0.000000       -0.095722         3
        11        12        16        17     9      180.000000       -1.018207         4
        11        12        16        23     9        0.000000        0.747628         1
        11        12        16        23     9      180.000000        9.366864         2
        11        12        16        23     9        0.000000       -0.095723         3
        11        12        16        23     9      180.000000       -1.018206         4
        12        11        10        14     9        0.000000       -3.183874         1
        12        11        10        14     9      180.000000       11.770770         2
        12        11        10        14     9        0.000000       -0.669596         3
        12        11        10        14     9      180.000000       -2.371236         4
        12        11        10        40     9        0.000000        3.046268         1
        12        11        10        40     9      180.000000       -0.789547         2
        12        11        10        40     9        0.000000       -0.188589         3
        12        11        10        40     9      180.000000        0.438255         4
        12        13        14        15     9        0.000000        0.141091         1
        12        13        14        15     9      180.000000       -1.554592         2
        12        13        14        15     9        0.000000        0.129275         3
        12        13        14        15     9      180.000000        0.187853         4
        12        13        14        45     9        0.000000        3.046266         1
        12        13        14        45     9      180.000000       -0.789547         2
        12        13        14        45     9        0.000000       -0.188588         3
        12        13        14        45     9      180.000000        0.438255         4
        12        16        17        18     9        0.000000        1.229501         1
        12        16        17        18     9      180.000000       16.103331         2
        12        16        17        18     9        0.000000        0.664455         3
        12        16        17        18     9      180.000000       -1.018198         4
        12        16        23        21     9        0.000000        1.229502         1
        12        16        23        21     9      180.000000       16.103329         2
        12        16        23        21     9        0.000000        0.664456         3
        12        16        23        21     9      180.000000       -1.018198         4
        13        12        11        41     9        0.000000       -0.040239         1
        13        12        11        41     9      180.000000       -0.063462         2
        13        12        11        41     9        0.000000        0.343610         3
        13        12        11        41     9      180.000000        0.107466         4
        13        12        11        42     9        0.000000       -0.040239         1
        13        12        11        42     9      180.000000       -0.063462         2
        13        12        11        42     9        0.000000        0.343610         3
        13        12        11        42     9      180.000000        0.107466         4
        13        12        16        17     9        0.000000        0.747627         1
        13        12        16        17     9      180.000000        9.366865         2
        13        12        16        17     9        0.000000       -0.095722         3
        13        12        16        17     9      180.000000       -1.018207         4
        13        12        16        23     9        0.000000        0.747630         1
        13        12        16        23     9      180.000000        9.366864         2
        13        12        16        23     9        0.000000       -0.095722         3
        13        12        16        23     9      180.000000       -1.018207         4
        13        14        10        40     9        0.000000        0.196399         1
        13        14        10        40     9      180.000000        0.124291         2
        13        14        10        40     9        0.000000        0.308842         3
        13        14        10        40     9      180.000000        0.285299         4
        13        14        15        46     9        0.000000       -0.090272         1
        13        14        15        46     9      180.000000        0.043314         2
        13        14        15        46     9        0.000000        0.181102         3
        13        14        15        46     9      180.000000        0.056845         4
        13        14        15        47     9        0.000000       -0.090272         1
        13        14        15        47     9      180.000000        0.043314         2
        13        14        15        47     9        0.000000        0.181102         3
        13        14        15        47     9      180.000000        0.056845         4
        14        10         9        38     9        0.000000        0.022484         1
        14        10         9        38     9      180.000000       -0.185435         2
        14        10         9        38     9        0.000000       -0.302150         3
        14        10         9        38     9      180.000000        0.229395         4
        14        10         9        39     9        0.000000        0.022484         1
        14        10         9        39     9      180.000000       -0.185435         2
        14        10         9        39     9        0.000000       -0.302150         3
        14        10         9        39     9      180.000000        0.229395         4
        14        10        11        41     9        0.000000        0.005453         1
        14        10        11        41     9      180.000000       -0.187956         2
        14        10        11        41     9        0.000000       -0.253494         3
        14        10        11        41     9      180.000000        0.289446         4
        14        10        11        42     9        0.000000        0.005453         1
        14        10        11        42     9      180.000000       -0.187956         2
        14        10        11        42     9        0.000000       -0.253494         3
        14        10        11        42     9      180.000000        0.289446         4
        14        13        12        16     9        0.000000       -3.777480         1
        14        13        12        16     9      180.000000       -0.445033         2
        14        13        12        16     9        0.000000        0.410580         3
        14        13        12        16     9      180.000000        0.178916         4
        15         8         9        38     9        0.000000       -0.036131         1
        15         8         9        38     9      180.000000       -0.000356         2
        15         8         9        38     9        0.000000        0.119650         3
        15         8         9        38     9      180.000000        0.062908         4
        15         8         9        39     9        0.000000       -0.036131         1
        15         8         9        39     9      180.000000       -0.000356         2
        15         8         9        39     9        0.000000        0.119650         3
        15         8         9        39     9      180.000000        0.062908         4
        15        14        10        40     9        0.000000       -0.022164         1
        15        14        10        40     9      180.000000        0.142975         2
        15        14        10        40     9        0.000000        0.388149         3
        15        14        10        40     9      180.000000        0.197014         4
        15        14        13        43     9        0.000000       -0.150867         1
        15        14        13        43     9      180.000000        0.072012         2
        15        14        13        43     9        0.000000        0.214875         3
        15        14        13        43     9      180.000000        0.045179         4
        15        14        13        44     9        0.000000       -0.150867         1
        15        14        13        44     9      180.000000        0.072012         2
        15        14        13        44     9        0.000000        0.214875         3
        15        14        13        44     9      180.000000        0.045179         4
        16        12        11        41     9        0.000000       -0.010160         1
        16        12        11        41     9      180.000000       -0.080811         2
        16        12        11        41     9        0.000000        0.536714         3
        16        12        11        41     9      180.000000       -0.022062         4
        16        12        11        42     9        0.000000       -0.010160         1
        16        12        11        42     9      180.000000       -0.080811         2
        16        12        11        42     9        0.000000        0.536714         3
        16        12        11        42     9      180.000000       -0.022062         4
        16        12        13        43     9        0.000000       -0.010161         1
        16        12        13        43     9      180.000000       -0.080811         2
        16        12        13        43     9        0.000000        0.536714         3
        16        12        13        43     9      180.000000       -0.022063         4
        16        12        13        44     9        0.000000       -0.010161         1
        16        12        13        44     9      180.000000       -0.080811         2
        16        12        13        44     9        0.000000        0.536714         3
        16        12        13        44     9      180.000000       -0.022063         4
        16        17        18        19     9        0.000000       -0.024261         1
        16        17        18        19     9      180.000000       17.595206         2
        16        17        18        19     9        0.000000        0.133710         3
        16        17        18        19     9      180.000000       -0.526294         4
        16        17        18        20     9        0.000000       -0.379284         1
        16        17        18        20     9      180.000000       19.341467         2
        16        17        18        20     9        0.000000       -1.106329         3
        16        17        18        20     9      180.000000       -0.500796         4
        16        23        21        20     9        0.000000       -0.379284         1
        16        23        21        20     9      180.000000       19.341467         2
        16        23        21        20     9        0.000000       -1.106329         3
        16        23        21        20     9      180.000000       -0.500796         4
        16        23        21        22     9        0.000000       -0.024262         1
        16        23        21        22     9      180.000000       17.595210         2
        16        23        21        22     9        0.000000        0.133710         3
        16        23        21        22     9      180.000000       -0.526294         4
        17        16        23        21     9        0.000000        0.513199         1
        17        16        23        21     9      180.000000        9.191426         2
        17        16        23        21     9        0.000000        0.738957         3
        17        16        23        21     9      180.000000       -0.519149         4
        17        18        19        48     9        0.000000        0.003881         1
        17        18        19        48     9      180.000000       -0.062736         2
        17        18        19        48     9        0.000000        0.023444         3
        17        18        19        48     9      180.000000       -0.007650         4
        17        18        19        49     9        0.000000        0.003881         1
        17        18        19        49     9      180.000000       -0.062736         2
        17        18        19        49     9        0.000000        0.023444         3
        17        18        19        49     9      180.000000       -0.007650         4
        17        18        19        50     9        0.000000        0.003881         1
        17        18        19        50     9      180.000000       -0.062736         2
        17        18        19        50     9        0.000000        0.023444         3
        17        18        19        50     9      180.000000       -0.007650         4
        17        18        20        21     9        0.000000       -0.062247         1
        17        18        20        21     9      180.000000       14.568155         2
        17        18        20        21     9        0.000000       -0.276619         3
        17        18        20        21     9      180.000000       -0.509286         4
        17        18        20        51     9        0.000000       -0.034010         1
        17        18        20        51     9      180.000000       12.223299         2
        17        18        20        51     9        0.000000       -0.267637         3
        17        18        20        51     9      180.000000       -0.072661         4
        18        17        16        23     9        0.000000        0.513200         1
        18        17        16        23     9      180.000000        9.191426         2
        18        17        16        23     9        0.000000        0.738957         3
        18        17        16        23     9      180.000000       -0.519149         4
        18        20        21        22     9        0.000000        0.256556         1
        18        20        21        22     9      180.000000       13.179426         2
        18        20        21        22     9        0.000000       -0.097633         3
        18        20        21        22     9      180.000000       -0.317869         4
        18        20        21        23     9        0.000000       -0.062248         1
        18        20        21        23     9      180.000000       14.568153         2
        18        20        21        23     9        0.000000       -0.276618         3
        18        20        21        23     9      180.000000       -0.509287         4
        19        18        20        21     9        0.000000        0.256556         1
        19        18        20        21     9      180.000000       13.179428         2
        19        18        20        21     9        0.000000       -0.097633         3
        19        18        20        21     9      180.000000       -0.317869         4
        19        18        20        51     9        0.000000       -0.223957         1
        19        18        20        51     9      180.000000       11.375068         2
        19        18        20        51     9        0.000000       -0.534832         3
        19        18        20        51     9      180.000000        0.134009         4
        20        18        19        48     9        0.000000       -0.025287         1
        20        18        19        48     9      180.000000       -0.035803         2
        20        18        19        48     9        0.000000       -0.089579         3
        20        18        19        48     9      180.000000        0.005712         4
        20        18        19        49     9        0.000000       -0.025287         1
        20        18        19        49     9      180.000000       -0.035803         2
        20        18        19        49     9        0.000000       -0.089579         3
        20        18        19        49     9      180.000000        0.005712         4
        20        18        19        50     9        0.000000       -0.025287         1
        20        18        19        50     9      180.000000       -0.035803         2
        20        18        19        50     9        0.000000       -0.089579         3
        20        18        19        50     9      180.000000        0.005712         4
        20        21        22        52     9        0.000000       -0.025287         1
        20        21        22        52     9      180.000000       -0.035803         2
        20        21        22        52     9        0.000000       -0.089578         3
        20        21        22        52     9      180.000000        0.005712         4
        20        21        22        53     9        0.000000       -0.025287         1
        20        21        22        53     9      180.000000       -0.035803         2
        20        21        22        53     9        0.000000       -0.089578         3
        20        21        22        53     9      180.000000        0.005712         4
        20        21        22        54     9        0.000000       -0.025287         1
        20        21        22        54     9      180.000000       -0.035803         2
        20        21        22        54     9        0.000000       -0.089578         3
        20        21        22        54     9      180.000000        0.005712         4
        22        21        20        51     9        0.000000       -0.223957         1
        22        21        20        51     9      180.000000       11.375068         2
        22        21        20        51     9        0.000000       -0.534831         3
        22        21        20        51     9      180.000000        0.134009         4
        23        21        20        51     9        0.000000       -0.034010         1
        23        21        20        51     9      180.000000       12.223298         2
        23        21        20        51     9        0.000000       -0.267637         3
        23        21        20        51     9      180.000000       -0.072661         4
        23        21        22        52     9        0.000000        0.003880         1
        23        21        22        52     9      180.000000       -0.062734         2
        23        21        22        52     9        0.000000        0.023445         3
        23        21        22        52     9      180.000000       -0.007650         4
        23        21        22        53     9        0.000000        0.003880         1
        23        21        22        53     9      180.000000       -0.062734         2
        23        21        22        53     9        0.000000        0.023445         3
        23        21        22        53     9      180.000000       -0.007650         4
        23        21        22        54     9        0.000000        0.003880         1
        23        21        22        54     9      180.000000       -0.062734         2
        23        21        22        54     9        0.000000        0.023445         3
        23        21        22        54     9      180.000000       -0.007650         4
        24         5         4        37     9        0.000000        0.312997         1
        24         5         4        37     9      180.000000       13.958520         2
        24         5         4        37     9        0.000000       -0.317627         3
        24         5         4        37     9      180.000000        0.039305         4
        24        25        26        27     9        0.000000        0.427889         1
        24        25        26        27     9      180.000000       18.519472         2
        24        25        26        27     9        0.000000        0.079179         3
        24        25        26        27     9      180.000000       -0.398110         4
        24        29        30        31     9        0.000000        0.713611         1
        24        29        30        31     9      180.000000       14.498820         2
        24        29        30        31     9        0.000000        0.394521         3
        24        29        30        31     9      180.000000       -0.204610         4
        24        29        33        32     9        0.000000        0.713610         1
        24        29        33        32     9      180.000000       14.498820         2
        24        29        33        32     9        0.000000        0.394521         3
        24        29        33        32     9      180.000000       -0.204610         4
        25        24        29        30     9        0.000000        0.678641         1
        25        24        29        30     9      180.000000        3.212379         2
        25        24        29        30     9        0.000000       -0.319457         3
        25        24        29        30     9      180.000000        0.111178         4
        25        24        29        33     9        0.000000        0.678642         1
        25        24        29        33     9      180.000000        3.212379         2
        25        24        29        33     9        0.000000       -0.319456         3
        25        24        29        33     9      180.000000        0.111178         4
        25        26        27        28     9        0.000000       -0.567973         1
        25        26        27        28     9      180.000000        4.974531         2
        25        26        27        28     9        0.000000       -0.909152         3
        25        26        27        28     9      180.000000        0.401887         4
        26         3         4        37     9        0.000000        0.274419         1
        26         3         4        37     9      180.000000       13.092710         2
        26         3         4        37     9        0.000000       -0.365251         3
        26         3         4        37     9      180.000000        0.202417         4
        26        25        24        29     9        0.000000        0.200694         1
        26        25        24        29     9      180.000000       18.512070         2
        26        25        24        29     9        0.000000       -0.000284         3
        26        25        24        29     9      180.000000       -0.609086         4
        26        27        28        56     9        0.000000       -0.007691         1
        26        27        28        56     9      180.000000       -0.014211         2
        26        27        28        56     9        0.000000        0.449700         3
        26        27        28        56     9      180.000000       -0.011361         4
        26        27        28        57     9        0.000000       -0.007691         1
        26        27        28        57     9      180.000000       -0.014211         2
        26        27        28        57     9        0.000000        0.449700         3
        26        27        28        57     9      180.000000       -0.011361         4
        26        27        28        58     9        0.000000       -0.007691         1
        26        27        28        58     9      180.000000       -0.014211         2
        26        27        28        58     9        0.000000        0.449700         3
        26        27        28        58     9      180.000000       -0.011361         4
        27        26        25        55     9        0.000000        0.211895         1
        27        26        25        55     9      180.000000       14.169007         2
        27        26        25        55     9        0.000000       -0.051152         3
        27        26        25        55     9      180.000000        0.300268         4
        29        24        25        55     9        0.000000        0.114359         1
        29        24        25        55     9      180.000000       14.327398         2
        29        24        25        55     9        0.000000       -0.042606         3
        29        24        25        55     9      180.000000        0.080176         4
        29        30        31        32     9        0.000000       -0.109175         1
        29        30        31        32     9      180.000000       41.138424         2
        29        30        31        32     9        0.000000       -5.873811         3
        29        30        31        32     9      180.000000       -0.015824         4
        29        30        31        59     9        0.000000        1.278182         1
        29        30        31        59     9      180.000000       26.557518         2
        29        30        31        59     9        0.000000       -0.109342         3
        29        30        31        59     9      180.000000       -0.148506         4
        29        33        32        31     9        0.000000       -0.109176         1
        29        33        32        31     9      180.000000       41.138428         2
        29        33        32        31     9        0.000000       -5.873813         3
        29        33        32        31     9      180.000000       -0.015825         4
        29        33        32        60     9        0.000000        1.278182         1
        29        33        32        60     9      180.000000       26.557516         2
        29        33        32        60     9        0.000000       -0.109342         3
        29        33        32        60     9      180.000000       -0.148505         4
        30        29        33        32     9        0.000000       -0.214434         1
        30        29        33        32     9      180.000000       33.402597         2
        30        29        33        32     9        0.000000       -5.643052         3
        30        29        33        32     9      180.000000        0.091547         4
        30        31        32        33     9        0.000000       -0.646394         1
        30        31        32        33     9      180.000000       33.879568         2
        30        31        32        33     9        0.000000       -7.997882         3
        30        31        32        33     9      180.000000       -0.068922         4
        30        31        32        60     9        0.000000        0.399472         1
        30        31        32        60     9      180.000000       15.777787         2
        30        31        32        60     9        0.000000       -0.622625         3
        30        31        32        60     9      180.000000       -0.473181         4
        31        30        29        33     9        0.000000       -0.214435         1
        31        30        29        33     9      180.000000       33.402593         2
        31        30        29        33     9        0.000000       -5.643053         3
        31        30        29        33     9      180.000000        0.091546         4
        33        32        31        59     9        0.000000        0.399471         1
        33        32        31        59     9      180.000000       15.777787         2
        33        32        31        59     9        0.000000       -0.622625         3
        33        32        31        59     9      180.000000       -0.473181         4
        38         9        10        40     9        0.000000       -0.086594         1
        38         9        10        40     9      180.000000        0.026399         2
        38         9        10        40     9        0.000000        0.269152         3
        38         9        10        40     9      180.000000       -0.020189         4
        39         9        10        40     9        0.000000       -0.086594         1
        39         9        10        40     9      180.000000        0.026399         2
        39         9        10        40     9        0.000000        0.269152         3
        39         9        10        40     9      180.000000       -0.020189         4
        40        10        11        41     9        0.000000       -0.140740         1
        40        10        11        41     9      180.000000       -0.009946         2
        40        10        11        41     9        0.000000        0.295617         3
        40        10        11        41     9      180.000000       -0.018107         4
        40        10        11        42     9        0.000000       -0.140740         1
        40        10        11        42     9      180.000000       -0.009946         2
        40        10        11        42     9        0.000000        0.295617         3
        40        10        11        42     9      180.000000       -0.018107         4
        40        10        14        45     9        0.000000        0.223575         1
        40        10        14        45     9      180.000000       -0.077956         2
        40        10        14        45     9        0.000000        0.353694         3
        40        10        14        45     9      180.000000       -0.057174         4
        43        13        14        45     9        0.000000       -0.140741         1
        43        13        14        45     9      180.000000       -0.009946         2
        43        13        14        45     9        0.000000        0.295617         3
        43        13        14        45     9      180.000000       -0.018107         4
        44        13        14        45     9        0.000000       -0.140741         1
        44        13        14        45     9      180.000000       -0.009946         2
        44        13        14        45     9        0.000000        0.295617         3
        44        13        14        45     9      180.000000       -0.018107         4
        45        14        15        46     9        0.000000       -0.086595         1
        45        14        15        46     9      180.000000        0.026399         2
        45        14        15        46     9        0.000000        0.269152         3
        45        14        15        46     9      180.000000       -0.020189         4
        45        14        15        47     9        0.000000       -0.086595         1
        45        14        15        47     9      180.000000        0.026399         2
        45        14        15        47     9        0.000000        0.269152         3
        45        14        15        47     9      180.000000       -0.020189         4
        59        31        32        60     9        0.000000       -0.304766         1
        59        31        32        60     9      180.000000        8.321253         2
        59        31        32        60     9        0.000000       -0.141498         3
        59        31        32        60     9      180.000000        0.273252         4

[ dihedrals ] ; impropers
;       ai        aj        ak        al funct           phase               k        pn
        16        12        17        23     4      180.000000       27.893333         2
        16        17        23        12     4      180.000000       27.893333         2
        16        23        12        17     4      180.000000       27.893333         2
        18        17        19        20     4      180.000000       21.793922         2
        18        19        20        17     4      180.000000       21.793922         2
        18        20        17        19     4      180.000000       21.793922         2
        21        20        22        23     4      180.000000       21.793922         2
        21        22        23        20     4      180.000000       21.793922         2
        21        23        20        22     4      180.000000       21.793922         2

[ pairs ]
;       ai        aj funct
         1         4     1
         1        26     1
         2         5     1
         2        25     1
         2        27     1
         2        37     1
         3         6     1
         3        24     1
         3        28     1
         3        34     1
         3        35     1
         3        36     1
         3        55     1
         4         7     1
         4         8     1
         4        25     1
         4        27     1
         4        29     1
         5         9     1
         5        15     1
         5        26     1
         5        30     1
         5        33     1
         5        55     1
         6        10     1
         6        14     1
         6        25     1
         6        29     1
         6        37     1
         6        38     1
         6        39     1
         6        46     1
         6        47     1
         7         9     1
         7        15     1
         7        24     1
         8        11     1
         8        13     1
         8        24     1
         8        40     1
         8        45     1
         9        12     1
         9        13     1
         9        41     1
         9        42     1
         9        45     1
         9        46     1
         9        47     1
        10        16     1
        10        43     1
        10        44     1
        10        46     1
        10        47     1
        11        15     1
        11        17     1
        11        23     1
        11        38     1
        11        39     1
        11        43     1
        11        44     1
        11        45     1
        12        15     1
        12        18     1
        12        21     1
        12        40     1
        12        45     1
        13        17     1
        13        23     1
        13        40     1
        13        41     1
        13        42     1
        13        46     1
        13        47     1
        14        16     1
        14        38     1
        14        39     1
        14        41     1
        14        42     1
        15        38     1
        15        39     1
        15        40     1
        15        43     1
        15        44     1
        16        19     1
        16        20     1
        16        22     1
        16        41     1
        16        42     1
        16        43     1
        16        44     1
        17        21     1
        17        48     1
        17        49     1
        17        50     1
        17        51     1
        18        22     1
        18        23     1
        19        21     1
        19        51     1
        20        48     1
        20        49     1
        20        50     1
        20        52     1
        20        53     1
        20        54     1
        22        51     1
        23        51     1
        23        52     1
        23        53     1
        23        54     1
        24        27     1
        24        31     1
        24        32     1
        24        37     1
        25        28     1
        25        30     1
        25        33     1
        26        29     1
        26        37     1
        26        56     1
        26        57     1
        26        58     1
        27        55     1
        29        55     1
        29        59     1
        29        60     1
        30        60     1
        33        59     1
        38        40     1
        39        40     1
        40        41     1
        40        42     1
        40        45     1
        43        45     1
        44        45     1
        45        46     1
        45        47     1
        59        60     1
