; ITP file created by ByteFF-ML, 2025-12-06 04:39:20.639637

[ atomtypes ]
;name           bonded.type        at.num        mass        charge   ptype           sigma         epsilon
 c0bf                                   6      0.0000       0.00000       A     3.39811e-01     4.50987e-01
 c1bf                                   6      0.0000       0.00000       A     3.31382e-01     4.11433e-01
 c2bf                                   6      0.0000       0.00000       A     3.31535e-01     4.13743e-01
 c3bf                                   6      0.0000       0.00000       A     3.31542e-01     4.13358e-01
 n4bf                                   7      0.0000       0.00000       A     3.38401e-01     3.91393e-01
 c5bf                                   6      0.0000       0.00000       A     3.31544e-01     4.12611e-01
 n6bf                                   7      0.0000       0.00000       A     3.38246e-01     3.94507e-01
 n7bf                                   7      0.0000       0.00000       A     3.19417e-01     8.94289e-01
 c8bf                                   6      0.0000       0.00000       A     3.39585e-01     4.49212e-01
 c9bf                                   6      0.0000       0.00000       A     3.39712e-01     4.49806e-01
 c10bf                                  6      0.0000       0.00000       A     3.39727e-01     4.50797e-01
 n11bf                                  7      0.0000       0.00000       A     3.18172e-01     6.81534e-01
 c12bf                                  6      0.0000       0.00000       A     3.39727e-01     4.50797e-01
 c13bf                                  6      0.0000       0.00000       A     3.39712e-01     4.49806e-01
 c14bf                                  6      0.0000       0.00000       A     3.39585e-01     4.49212e-01
 c15bf                                  6      0.0000       0.00000       A     3.31327e-01     4.13248e-01
 o16bf                                  8      0.0000       0.00000       A     3.04514e-01     6.13792e-01
 c17bf                                  6      0.0000       0.00000       A     3.31273e-01     4.13283e-01
 c18bf                                  6      0.0000       0.00000       A     3.31521e-01     4.13918e-01
 f19bf                                  9      0.0000       0.00000       A     3.03540e-01     3.48621e-01
 c20bf                                  6      0.0000       0.00000       A     3.31463e-01     4.12493e-01
 c21bf                                  6      0.0000       0.00000       A     3.31469e-01     4.12700e-01
 c22bf                                  6      0.0000       0.00000       A     3.31436e-01     4.11484e-01
 c23bf                                  6      0.0000       0.00000       A     3.31571e-01     4.13495e-01
 n24bf                                  7      0.0000       0.00000       A     3.20910e-01     8.46558e-01
 n25bf                                  7      0.0000       0.00000       A     3.38251e-01     3.94826e-01
 c26bf                                  6      0.0000       0.00000       A     3.31301e-01     4.12308e-01
 c27bf                                  6      0.0000       0.00000       A     3.31301e-01     4.12308e-01
 n28bf                                  7      0.0000       0.00000       A     3.38251e-01     3.94826e-01
 c29bf                                  6      0.0000       0.00000       A     3.39792e-01     4.51308e-01
 c30bf                                  6      0.0000       0.00000       A     3.39854e-01     4.50848e-01
 c31bf                                  6      0.0000       0.00000       A     3.39854e-01     4.50848e-01
 h32bf                                  1      0.0000       0.00000       A     2.59989e-01     8.71151e-02
 h33bf                                  1      0.0000       0.00000       A     2.59989e-01     8.71151e-02
 h34bf                                  1      0.0000       0.00000       A     2.59989e-01     8.71151e-02
 h35bf                                  1      0.0000       0.00000       A     2.62563e-01     6.76191e-02
 h36bf                                  1      0.0000       0.00000       A     2.42127e-01     8.72842e-02
 h37bf                                  1      0.0000       0.00000       A     2.42127e-01     8.72842e-02
 h38bf                                  1      0.0000       0.00000       A     2.60149e-01     8.67575e-02
 h39bf                                  1      0.0000       0.00000       A     2.42171e-01     8.72571e-02
 h40bf                                  1      0.0000       0.00000       A     2.42171e-01     8.72571e-02
 h41bf                                  1      0.0000       0.00000       A     2.42171e-01     8.72571e-02
 h42bf                                  1      0.0000       0.00000       A     2.42171e-01     8.72571e-02
 h43bf                                  1      0.0000       0.00000       A     2.60149e-01     8.67575e-02
 h44bf                                  1      0.0000       0.00000       A     2.42127e-01     8.72842e-02
 h45bf                                  1      0.0000       0.00000       A     2.42127e-01     8.72842e-02
 h46bf                                  1      0.0000       0.00000       A     2.62509e-01     6.72536e-02
 h47bf                                  1      0.0000       0.00000       A     2.62495e-01     6.71945e-02
 h48bf                                  1      0.0000       0.00000       A     2.62555e-01     6.79734e-02
 h49bf                                  1      0.0000       0.00000       A     2.53897e-01     6.74946e-02
 h50bf                                  1      0.0000       0.00000       A     2.53897e-01     6.74946e-02
 h51bf                                  1      0.0000       0.00000       A     2.59747e-01     8.61271e-02
 h52bf                                  1      0.0000       0.00000       A     2.60109e-01     8.63873e-02
 h53bf                                  1      0.0000       0.00000       A     2.60109e-01     8.63873e-02
 h54bf                                  1      0.0000       0.00000       A     2.60109e-01     8.63873e-02
 h55bf                                  1      0.0000       0.00000       A     2.60109e-01     8.63873e-02

[ moleculetype ]
;name             nrexcl
 set_1_4               3

[ atoms ]
;       nr            type      resi   res      atom      cgnr      charge          mass ; qtot
         1            c0bf         1   UNL        c0         1    -0.15129       12.0110 ; qtot   -0.151
         2            c1bf         1   UNL        c1         2     0.16123       12.0110 ; qtot    0.010
         3            c2bf         1   UNL        c2         3    -0.26352       12.0110 ; qtot   -0.254
         4            c3bf         1   UNL        c3         4     0.19407       12.0110 ; qtot   -0.060
         5            n4bf         1   UNL        n4         5    -0.25874       14.0070 ; qtot   -0.318
         6            c5bf         1   UNL        c5         6     0.38480       12.0110 ; qtot    0.067
         7            n6bf         1   UNL        n6         7    -0.24941       14.0070 ; qtot   -0.183
         8            n7bf         1   UNL        n7         8    -0.78101       14.0070 ; qtot   -0.964
         9            c8bf         1   UNL        c8         9     0.23674       12.0110 ; qtot   -0.727
        10            c9bf         1   UNL        c9        10    -0.10223       12.0110 ; qtot   -0.829
        11           c10bf         1   UNL       c10        11     0.11230       12.0110 ; qtot   -0.717
        12           n11bf         1   UNL       n11        12    -0.41240       14.0070 ; qtot   -1.129
        13           c12bf         1   UNL       c12        13     0.11230       12.0110 ; qtot   -1.017
        14           c13bf         1   UNL       c13        14    -0.10223       12.0110 ; qtot   -1.119
        15           c14bf         1   UNL       c14        15     0.23674       12.0110 ; qtot   -0.883
        16           c15bf         1   UNL       c15        16     0.64532       12.0110 ; qtot   -0.237
        17           o16bf         1   UNL       o16        17    -0.58742       15.9990 ; qtot   -0.825
        18           c17bf         1   UNL       c17        18    -0.15190       12.0110 ; qtot   -0.977
        19           c18bf         1   UNL       c18        19     0.19456       12.0110 ; qtot   -0.782
        20           f19bf         1   UNL       f19        20    -0.16798       18.9980 ; qtot   -0.950
        21           c20bf         1   UNL       c20        21    -0.14840       12.0110 ; qtot   -1.098
        22           c21bf         1   UNL       c21        22    -0.06562       12.0110 ; qtot   -1.164
        23           c22bf         1   UNL       c22        23    -0.10373       12.0110 ; qtot   -1.268
        24           c23bf         1   UNL       c23        24     0.06898       12.0110 ; qtot   -1.199
        25           n24bf         1   UNL       n24        25     0.31512       14.0070 ; qtot   -0.884
        26           n25bf         1   UNL       n25        26    -0.47882       14.0070 ; qtot   -1.363
        27           c26bf         1   UNL       c26        27     0.20629       12.0110 ; qtot   -1.156
        28           c27bf         1   UNL       c27        28     0.20629       12.0110 ; qtot   -0.950
        29           n28bf         1   UNL       n28        29    -0.47882       14.0070 ; qtot   -1.429
        30           c29bf         1   UNL       c29        30    -0.20789       12.0110 ; qtot   -1.637
        31           c30bf         1   UNL       c30        31    -0.10769       12.0110 ; qtot   -1.744
        32           c31bf         1   UNL       c31        32    -0.10769       12.0110 ; qtot   -1.852
        33           h32bf         1   UNL       h32        33     0.05752        1.0080 ; qtot   -1.795
        34           h33bf         1   UNL       h33        34     0.05752        1.0080 ; qtot   -1.737
        35           h34bf         1   UNL       h34        35     0.05752        1.0080 ; qtot   -1.679
        36           h35bf         1   UNL       h35        36     0.13234        1.0080 ; qtot   -1.547
        37           h36bf         1   UNL       h36        37     0.05798        1.0080 ; qtot   -1.489
        38           h37bf         1   UNL       h37        38     0.05798        1.0080 ; qtot   -1.431
        39           h38bf         1   UNL       h38        39     0.07208        1.0080 ; qtot   -1.359
        40           h39bf         1   UNL       h39        40     0.06015        1.0080 ; qtot   -1.299
        41           h40bf         1   UNL       h40        41     0.06015        1.0080 ; qtot   -1.239
        42           h41bf         1   UNL       h41        42     0.06015        1.0080 ; qtot   -1.179
        43           h42bf         1   UNL       h42        43     0.06015        1.0080 ; qtot   -1.119
        44           h43bf         1   UNL       h43        44     0.07208        1.0080 ; qtot   -1.046
        45           h44bf         1   UNL       h44        45     0.05798        1.0080 ; qtot   -0.988
        46           h45bf         1   UNL       h45        46     0.05798        1.0080 ; qtot   -0.930
        47           h46bf         1   UNL       h46        47     0.14181        1.0080 ; qtot   -0.789
        48           h47bf         1   UNL       h47        48     0.12690        1.0080 ; qtot   -0.662
        49           h48bf         1   UNL       h48        49     0.14214        1.0080 ; qtot   -0.520
        50           h49bf         1   UNL       h49        50     0.05626        1.0080 ; qtot   -0.463
        51           h50bf         1   UNL       h50        51     0.05626        1.0080 ; qtot   -0.407
        52           h51bf         1   UNL       h51        52     0.09884        1.0080 ; qtot   -0.308
        53           h52bf         1   UNL       h52        53     0.07707        1.0080 ; qtot   -0.231
        54           h53bf         1   UNL       h53        54     0.07707        1.0080 ; qtot   -0.154
        55           h54bf         1   UNL       h54        55     0.07707        1.0080 ; qtot   -0.077
        56           h55bf         1   UNL       h55        56     0.07705        1.0080 ; qtot   -0.000

[ bonds ]
;       ai        aj funct               r               k
         1         2     1        0.150704   207410.767969
         1        33     1        0.109353   305417.954590
         1        34     1        0.109353   305417.954590
         1        35     1        0.109353   305417.954590
         2         3     1        0.139814   292481.135889
         2         7     1        0.133855   330997.659863
         3         4     1        0.140336   278350.048730
         3        36     1        0.108464   322760.460937
         4         5     1        0.133853   323514.393018
         4        30     1        0.148438   216293.187500
         5         6     1        0.135050   256659.108936
         6         7     1        0.135054   255264.833838
         6         8     1        0.136191   321623.574365
         8         9     1        0.146882   181128.051611
         8        15     1        0.146882   181128.051611
         9        10     1        0.153334   175036.020947
         9        37     1        0.109481   294444.786377
         9        38     1        0.109481   294444.786377
        10        11     1        0.153427   175080.787500
        10        14     1        0.154277   149842.130322
        10        39     1        0.109325   303915.912891
        11        12     1        0.147261   177221.078174
        11        40     1        0.109385   298254.744336
        11        41     1        0.109385   298254.744336
        12        13     1        0.147261   177221.103711
        12        16     1        0.135519   319235.343896
        13        14     1        0.153427   175080.787500
        13        42     1        0.109385   298254.744336
        13        43     1        0.109385   298254.744336
        14        15     1        0.153334   175036.020947
        14        44     1        0.109325   303915.912891
        15        45     1        0.109481   294444.811914
        15        46     1        0.109481   294444.811914
        16        17     1        0.123360   594256.707031
        16        18     1        0.151390   177572.570947
        18        19     1        0.139458   293723.388574
        18        24     1        0.140413   276391.377979
        19        20     1        0.135748   284734.964502
        19        21     1        0.139016   308702.537598
        21        22     1        0.139696   310400.653223
        21        47     1        0.108455   325846.007715
        22        23     1        0.139473   319062.687500
        22        48     1        0.108533   323324.958740
        23        24     1        0.139859   295100.783643
        23        49     1        0.108380   327020.204004
        24        25     1        0.142246   231473.109277
        25        26     1        0.134040   244717.267090
        25        29     1        0.134040   244717.267090
        26        27     1        0.133423   350873.498535
        27        28     1        0.141148   279463.543311
        27        50     1        0.108128   339085.415625
        28        29     1        0.133423   350873.498535
        28        51     1        0.108128   339085.415625
        30        31     1        0.152496   173394.993530
        30        32     1        0.152496   173394.993530
        30        52     1        0.108484   320352.030615
        31        32     1        0.150624   207557.325439
        31        53     1        0.108502   322860.770703
        31        54     1        0.108502   322860.770703
        32        55     1        0.108502   322860.770703
        32        56     1        0.108502   322860.770703

[ angles ]
;       ai        aj        ak funct           theta             cth
         1         2         3     1      122.017967      466.117302
         1         2         7     1      116.304138      475.890673
         2         1        33     1      110.546913      499.700612
         2         1        34     1      110.546913      499.700612
         2         1        35     1      110.546913      499.700612
         2         3         4     1      117.445541      820.542374
         2         3        36     1      121.249405      418.911955
         2         7         6     1      116.521629      950.957008
         3         2         7     1      121.747864      737.416082
         3         4         5     1      121.443153      713.308349
         3         4        30     1      122.047096      475.344179
         4         3        36     1      121.286903      414.982688
         4         5         6     1      116.824829      948.096022
         4        30        31     1      119.995445      437.598799
         4        30        32     1      119.995445      437.598799
         4        30        52     1      113.728470      454.511675
         5         4        30     1      116.292343      450.494081
         5         6         7     1      126.274124      607.333878
         5         6         8     1      116.767776      534.825310
         6         8         9     1      122.781372      493.230530
         6         8        15     1      122.781372      493.230530
         7         6         8     1      116.861923      542.546742
         8         9        10     1      102.895042      518.615023
         8         9        37     1      110.665543      411.366920
         8         9        38     1      110.665543      411.366920
         8        15        14     1      102.895042      518.615023
         8        15        45     1      110.665543      411.366889
         8        15        46     1      110.665543      411.366889
         9         8        15     1      113.050919      339.336247
         9        10        11     1      115.967918      490.766039
         9        10        14     1      103.531944      553.400524
         9        10        39     1      110.411415      471.837231
        10         9        37     1      112.134521      456.886371
        10         9        38     1      112.134521      456.886371
        10        11        12     1      103.310646      531.297103
        10        11        40     1      112.216675      453.127085
        10        11        41     1      112.216675      453.127085
        10        14        13     1      103.849327      536.391532
        10        14        15     1      103.531944      553.400524
        10        14        44     1      111.068626      475.836438
        11        10        14     1      103.849327      536.391532
        11        10        39     1      110.495773      465.529246
        11        12        13     1      111.682663      397.236312
        11        12        16     1      123.751732      462.075033
        12        11        40     1      110.410095      437.420805
        12        11        41     1      110.410095      437.420805
        12        13        14     1      103.310646      531.297103
        12        13        42     1      110.410095      437.420741
        12        13        43     1      110.410095      437.420741
        12        16        17     1      123.358742      631.986382
        12        16        18     1      116.499901      442.236497
        13        12        16     1      123.751732      462.075033
        13        14        15     1      115.967918      490.766039
        13        14        44     1      110.495773      465.529246
        14        10        39     1      111.068642      475.836438
        14        13        42     1      112.216675      453.127053
        14        13        43     1      112.216675      453.127085
        14        15        45     1      112.134521      456.886371
        14        15        46     1      112.134521      456.886371
        15        14        44     1      110.411415      471.837167
        16        18        19     1      120.170364      658.951909
        16        18        24     1      123.059631      563.306688
        17        16        18     1      119.672501      497.066650
        18        19        20     1      118.381653      447.457304
        18        19        21     1      123.063400      625.661925
        18        24        23     1      121.246506      661.938219
        18        24        25     1      119.852539      464.186441
        19        18        24     1      116.733643      734.512130
        19        21        22     1      118.224327      691.816126
        19        21        47     1      119.628578      419.195289
        20        19        21     1      118.309547      519.263729
        21        22        23     1      120.316055      729.245229
        21        22        48     1      119.748978      430.367360
        22        21        47     1      122.164230      418.572822
        22        23        24     1      119.566689      681.094307
        22        23        49     1      121.180099      420.410728
        23        22        48     1      119.884033      429.820291
        23        24        25     1      118.315903      543.668715
        24        23        49     1      119.153160      420.650809
        24        25        26     1      121.993149      521.996040
        24        25        29     1      121.993149      521.996040
        25        26        27     1      103.760353      480.370744
        25        29        28     1      103.760353      480.370712
        26        25        29     1      115.047997      210.842930
        26        27        28     1      108.709312      295.765693
        26        27        50     1      120.742882      391.074016
        27        28        29     1      108.709312      295.765693
        27        28        51     1      130.286758      343.611798
        28        27        50     1      130.286758      343.611798
        29        28        51     1      120.742882      391.073984
        30        31        32     1       60.303234      167.360000
        30        31        53     1      116.933105      368.280550
        30        31        54     1      116.933105      368.280550
        30        32        31     1       60.303234      167.360000
        30        32        55     1      116.933105      368.280550
        30        32        56     1      116.933105      368.280550
        31        30        32     1       59.251507      167.360000
        31        30        52     1      116.386986      364.946042
        31        32        55     1      118.164261      379.938145
        31        32        56     1      118.164261      379.938145
        32        30        52     1      116.386986      364.946042
        32        31        53     1      118.164261      379.938145
        32        31        54     1      118.164261      379.938145
        33         1        34     1      108.393265      360.100312
        33         1        35     1      108.393265      360.100312
        34         1        35     1      108.393265      360.100312
        37         9        38     1      107.788414      347.454335
        40        11        41     1      107.816490      348.007916
        42        13        43     1      107.816490      348.007948
        45        15        46     1      107.788414      347.454335
        53        31        54     1      115.255104      305.444896
        55        32        56     1      115.255104      305.444896

[ dihedrals ] ; propers for gromacs 4.5 or higher, use funct 9
;       ai        aj        ak        al funct           phase               k        pn
         1         2         3         4     9        0.000000        0.300541         1
         1         2         3         4     9      180.000000       13.837120         2
         1         2         3         4     9        0.000000       -0.105717         3
         1         2         3         4     9      180.000000       -0.311774         4
         1         2         3        36     9        0.000000       -0.095719         1
         1         2         3        36     9      180.000000       11.658806         2
         1         2         3        36     9        0.000000       -0.499327         3
         1         2         3        36     9      180.000000        0.171395         4
         1         2         7         6     9        0.000000       -0.016702         1
         1         2         7         6     9      180.000000       17.679355         2
         1         2         7         6     9        0.000000        0.151335         3
         1         2         7         6     9      180.000000       -0.530931         4
         2         3         4         5     9        0.000000       -0.254585         1
         2         3         4         5     9      180.000000       13.813256         2
         2         3         4         5     9        0.000000       -0.087981         3
         2         3         4         5     9      180.000000       -0.504283         4
         2         3         4        30     9        0.000000        0.124960         1
         2         3         4        30     9      180.000000       13.981971         2
         2         3         4        30     9        0.000000        0.068267         3
         2         3         4        30     9      180.000000       -0.538336         4
         2         7         6         5     9        0.000000        0.464553         1
         2         7         6         5     9      180.000000        9.888503         2
         2         7         6         5     9        0.000000        0.729473         3
         2         7         6         5     9      180.000000       -0.556441         4
         2         7         6         8     9        0.000000        1.193837         1
         2         7         6         8     9      180.000000       16.180217         2
         2         7         6         8     9        0.000000        0.662907         3
         2         7         6         8     9      180.000000       -1.020495         4
         3         2         1        33     9        0.000000       -0.038738         1
         3         2         1        33     9      180.000000       -0.044734         2
         3         2         1        33     9        0.000000       -0.118174         3
         3         2         1        33     9      180.000000        0.003787         4
         3         2         1        34     9        0.000000       -0.038738         1
         3         2         1        34     9      180.000000       -0.044734         2
         3         2         1        34     9        0.000000       -0.118174         3
         3         2         1        34     9      180.000000        0.003787         4
         3         2         1        35     9        0.000000       -0.038738         1
         3         2         1        35     9      180.000000       -0.044734         2
         3         2         1        35     9        0.000000       -0.118174         3
         3         2         1        35     9      180.000000        0.003787         4
         3         2         7         6     9        0.000000       -0.330594         1
         3         2         7         6     9      180.000000       19.183491         2
         3         2         7         6     9        0.000000       -1.149963         3
         3         2         7         6     9      180.000000       -0.496332         4
         3         4         5         6     9        0.000000       -0.203137         1
         3         4         5         6     9      180.000000       17.725340         2
         3         4         5         6     9        0.000000       -1.125653         3
         3         4         5         6     9      180.000000       -0.391088         4
         3         4        30        31     9        0.000000        0.274048         1
         3         4        30        31     9      180.000000        1.755279         2
         3         4        30        31     9        0.000000       -0.008320         3
         3         4        30        31     9      180.000000        0.097682         4
         3         4        30        32     9        0.000000        0.274048         1
         3         4        30        32     9      180.000000        1.755279         2
         3         4        30        32     9        0.000000       -0.008320         3
         3         4        30        32     9      180.000000        0.097682         4
         3         4        30        52     9        0.000000       -0.120496         1
         3         4        30        52     9      180.000000        3.158175         2
         3         4        30        52     9        0.000000        0.052092         3
         3         4        30        52     9      180.000000        0.107704         4
         4         3         2         7     9        0.000000       -0.008223         1
         4         3         2         7     9      180.000000       15.113952         2
         4         3         2         7     9        0.000000       -0.356639         3
         4         3         2         7     9      180.000000       -0.520158         4
         4         5         6         7     9        0.000000        0.339350         1
         4         5         6         7     9      180.000000        9.084553         2
         4         5         6         7     9        0.000000        0.637989         3
         4         5         6         7     9      180.000000       -0.465298         4
         4         5         6         8     9        0.000000        1.042199         1
         4         5         6         8     9      180.000000       15.576057         2
         4         5         6         8     9        0.000000        0.500534         3
         4         5         6         8     9      180.000000       -0.920014         4
         4        30        31        32     9        0.000000       31.624610         1
         4        30        31        32     9      180.000000        2.442763         2
         4        30        31        32     9        0.000000        1.724757         3
         4        30        31        32     9      180.000000       10.553793         4
         4        30        31        53     9        0.000000        4.600694         1
         4        30        31        53     9      180.000000        0.115151         2
         4        30        31        53     9        0.000000        0.265743         3
         4        30        31        53     9      180.000000        2.143796         4
         4        30        31        54     9        0.000000        4.600694         1
         4        30        31        54     9      180.000000        0.115151         2
         4        30        31        54     9        0.000000        0.265743         3
         4        30        31        54     9      180.000000        2.143796         4
         4        30        32        31     9        0.000000       31.624610         1
         4        30        32        31     9      180.000000        2.442763         2
         4        30        32        31     9        0.000000        1.724757         3
         4        30        32        31     9      180.000000       10.553793         4
         4        30        32        55     9        0.000000        4.600694         1
         4        30        32        55     9      180.000000        0.115151         2
         4        30        32        55     9        0.000000        0.265743         3
         4        30        32        55     9      180.000000        2.143796         4
         4        30        32        56     9        0.000000        4.600694         1
         4        30        32        56     9      180.000000        0.115151         2
         4        30        32        56     9        0.000000        0.265743         3
         4        30        32        56     9      180.000000        2.143796         4
         5         4         3        36     9        0.000000       -0.083978         1
         5         4         3        36     9      180.000000       11.832960         2
         5         4         3        36     9        0.000000       -0.309613         3
         5         4         3        36     9      180.000000       -0.057983         4
         5         4        30        31     9        0.000000       -0.944372         1
         5         4        30        31     9      180.000000        2.100247         2
         5         4        30        31     9        0.000000        0.271771         3
         5         4        30        31     9      180.000000        0.071489         4
         5         4        30        32     9        0.000000       -0.944372         1
         5         4        30        32     9      180.000000        2.100247         2
         5         4        30        32     9        0.000000        0.271771         3
         5         4        30        32     9      180.000000        0.071489         4
         5         4        30        52     9        0.000000        1.336367         1
         5         4        30        52     9      180.000000        3.603273         2
         5         4        30        52     9        0.000000        0.488516         3
         5         4        30        52     9      180.000000        0.110212         4
         5         6         8         9     9        0.000000        0.464197         1
         5         6         8         9     9      180.000000        9.276778         2
         5         6         8         9     9        0.000000       -0.104710         3
         5         6         8         9     9      180.000000       -0.962392         4
         5         6         8        15     9        0.000000        0.464198         1
         5         6         8        15     9      180.000000        9.276778         2
         5         6         8        15     9        0.000000       -0.104710         3
         5         6         8        15     9      180.000000       -0.962392         4
         6         5         4        30     9        0.000000       -0.188612         1
         6         5         4        30     9      180.000000       18.696600         2
         6         5         4        30     9        0.000000       -0.044070         3
         6         5         4        30     9      180.000000       -0.680055         4
         6         8         9        10     9        0.000000       -3.801673         1
         6         8         9        10     9      180.000000       -0.451173         2
         6         8         9        10     9        0.000000        0.411084         3
         6         8         9        10     9      180.000000        0.162215         4
         6         8         9        37     9        0.000000       -0.047785         1
         6         8         9        37     9      180.000000       -0.087598         2
         6         8         9        37     9        0.000000        0.547756         3
         6         8         9        37     9      180.000000       -0.022218         4
         6         8         9        38     9        0.000000       -0.047785         1
         6         8         9        38     9      180.000000       -0.087598         2
         6         8         9        38     9        0.000000        0.547756         3
         6         8         9        38     9      180.000000       -0.022218         4
         6         8        15        14     9        0.000000       -3.801672         1
         6         8        15        14     9      180.000000       -0.451173         2
         6         8        15        14     9        0.000000        0.411084         3
         6         8        15        14     9      180.000000        0.162215         4
         6         8        15        45     9        0.000000       -0.047785         1
         6         8        15        45     9      180.000000       -0.087598         2
         6         8        15        45     9        0.000000        0.547755         3
         6         8        15        45     9      180.000000       -0.022218         4
         6         8        15        46     9        0.000000       -0.047785         1
         6         8        15        46     9      180.000000       -0.087598         2
         6         8        15        46     9        0.000000        0.547755         3
         6         8        15        46     9      180.000000       -0.022218         4
         7         2         1        33     9        0.000000        0.005711         1
         7         2         1        33     9      180.000000       -0.067013         2
         7         2         1        33     9        0.000000        0.023358         3
         7         2         1        33     9      180.000000       -0.007387         4
         7         2         1        34     9        0.000000        0.005711         1
         7         2         1        34     9      180.000000       -0.067013         2
         7         2         1        34     9        0.000000        0.023358         3
         7         2         1        34     9      180.000000       -0.007387         4
         7         2         1        35     9        0.000000        0.005711         1
         7         2         1        35     9      180.000000       -0.067013         2
         7         2         1        35     9        0.000000        0.023358         3
         7         2         1        35     9      180.000000       -0.007387         4
         7         2         3        36     9        0.000000        0.033392         1
         7         2         3        36     9      180.000000       12.761140         2
         7         2         3        36     9        0.000000       -0.286851         3
         7         2         3        36     9      180.000000       -0.089396         4
         7         6         8         9     9        0.000000        0.780786         1
         7         6         8         9     9      180.000000        9.264344         2
         7         6         8         9     9        0.000000       -0.073054         3
         7         6         8         9     9      180.000000       -1.010976         4
         7         6         8        15     9        0.000000        0.780786         1
         7         6         8        15     9      180.000000        9.264344         2
         7         6         8        15     9        0.000000       -0.073054         3
         7         6         8        15     9      180.000000       -1.010975         4
         8         9        10        11     9        0.000000        0.137961         1
         8         9        10        11     9      180.000000       -1.549315         2
         8         9        10        11     9        0.000000        0.129179         3
         8         9        10        11     9      180.000000        0.186641         4
         8         9        10        14     9        0.000000       -3.168031         1
         8         9        10        14     9      180.000000       11.797628         2
         8         9        10        14     9        0.000000       -0.672845         3
         8         9        10        14     9      180.000000       -2.379676         4
         8         9        10        39     9        0.000000        3.047917         1
         8         9        10        39     9      180.000000       -0.793310         2
         8         9        10        39     9        0.000000       -0.188724         3
         8         9        10        39     9      180.000000        0.440518         4
         8        15        14        10     9        0.000000       -3.168033         1
         8        15        14        10     9      180.000000       11.797634         2
         8        15        14        10     9        0.000000       -0.672846         3
         8        15        14        10     9      180.000000       -2.379678         4
         8        15        14        13     9        0.000000        0.137960         1
         8        15        14        13     9      180.000000       -1.549315         2
         8        15        14        13     9        0.000000        0.129179         3
         8        15        14        13     9      180.000000        0.186641         4
         8        15        14        44     9        0.000000        3.047916         1
         8        15        14        44     9      180.000000       -0.793309         2
         8        15        14        44     9        0.000000       -0.188724         3
         8        15        14        44     9      180.000000        0.440518         4
         9         8        15        14     9        0.000000       -0.505610         1
         9         8        15        14     9      180.000000        0.692770         2
         9         8        15        14     9        0.000000        0.372806         3
         9         8        15        14     9      180.000000       -0.301470         4
         9         8        15        45     9        0.000000       -0.042971         1
         9         8        15        45     9      180.000000       -0.061898         2
         9         8        15        45     9        0.000000        0.344874         3
         9         8        15        45     9      180.000000        0.107870         4
         9         8        15        46     9        0.000000       -0.042971         1
         9         8        15        46     9      180.000000       -0.061898         2
         9         8        15        46     9        0.000000        0.344874         3
         9         8        15        46     9      180.000000        0.107870         4
         9        10        11        12     9        0.000000       -0.177639         1
         9        10        11        12     9      180.000000       -1.441188         2
         9        10        11        12     9        0.000000        0.139510         3
         9        10        11        12     9      180.000000        0.103643         4
         9        10        11        40     9        0.000000       -0.090272         1
         9        10        11        40     9      180.000000        0.043313         2
         9        10        11        40     9        0.000000        0.181102         3
         9        10        11        40     9      180.000000        0.056845         4
         9        10        11        41     9        0.000000       -0.090272         1
         9        10        11        41     9      180.000000        0.043313         2
         9        10        11        41     9        0.000000        0.181102         3
         9        10        11        41     9      180.000000        0.056845         4
         9        10        14        13     9        0.000000       -1.429697         1
         9        10        14        13     9      180.000000       -0.955407         2
         9        10        14        13     9        0.000000        0.546147         3
         9        10        14        13     9      180.000000       -0.724521         4
         9        10        14        15     9        0.000000       -1.723216         1
         9        10        14        15     9      180.000000       -1.104300         2
         9        10        14        15     9        0.000000        0.465854         3
         9        10        14        15     9      180.000000       -0.749204         4
         9        10        14        44     9        0.000000        0.196400         1
         9        10        14        44     9      180.000000        0.124290         2
         9        10        14        44     9        0.000000        0.308843         3
         9        10        14        44     9      180.000000        0.285300         4
        10         9         8        15     9        0.000000       -0.505610         1
        10         9         8        15     9      180.000000        0.692773         2
        10         9         8        15     9        0.000000        0.372805         3
        10         9         8        15     9      180.000000       -0.301470         4
        10        11        12        13     9        0.000000       -0.098874         1
        10        11        12        13     9      180.000000       -0.275992         2
        10        11        12        13     9        0.000000        0.219330         3
        10        11        12        13     9      180.000000       -0.018668         4
        10        11        12        16     9        0.000000       -0.924898         1
        10        11        12        16     9      180.000000       -0.742800         2
        10        11        12        16     9        0.000000        0.102247         3
        10        11        12        16     9      180.000000        0.138445         4
        10        14        13        12     9        0.000000       -2.932575         1
        10        14        13        12     9      180.000000        7.822341         2
        10        14        13        12     9        0.000000       -0.704965         3
        10        14        13        12     9      180.000000       -1.187778         4
        10        14        13        42     9        0.000000        0.022483         1
        10        14        13        42     9      180.000000       -0.185436         2
        10        14        13        42     9        0.000000       -0.302149         3
        10        14        13        42     9      180.000000        0.229395         4
        10        14        13        43     9        0.000000        0.022483         1
        10        14        13        43     9      180.000000       -0.185436         2
        10        14        13        43     9        0.000000       -0.302149         3
        10        14        13        43     9      180.000000        0.229395         4
        10        14        15        45     9        0.000000        0.005453         1
        10        14        15        45     9      180.000000       -0.187956         2
        10        14        15        45     9        0.000000       -0.253493         3
        10        14        15        45     9      180.000000        0.289446         4
        10        14        15        46     9        0.000000        0.005453         1
        10        14        15        46     9      180.000000       -0.187956         2
        10        14        15        46     9        0.000000       -0.253493         3
        10        14        15        46     9      180.000000        0.289446         4
        11        10         9        37     9        0.000000       -0.150868         1
        11        10         9        37     9      180.000000        0.072012         2
        11        10         9        37     9        0.000000        0.214875         3
        11        10         9        37     9      180.000000        0.045180         4
        11        10         9        38     9        0.000000       -0.150868         1
        11        10         9        38     9      180.000000        0.072012         2
        11        10         9        38     9        0.000000        0.214875         3
        11        10         9        38     9      180.000000        0.045180         4
        11        10        14        13     9        0.000000       -0.903494         1
        11        10        14        13     9      180.000000       -0.930898         2
        11        10        14        13     9        0.000000        0.568820         3
        11        10        14        13     9      180.000000       -0.686260         4
        11        10        14        15     9        0.000000       -1.429699         1
        11        10        14        15     9      180.000000       -0.955405         2
        11        10        14        15     9        0.000000        0.546147         3
        11        10        14        15     9      180.000000       -0.724522         4
        11        10        14        44     9        0.000000       -0.022164         1
        11        10        14        44     9      180.000000        0.142975         2
        11        10        14        44     9        0.000000        0.388150         3
        11        10        14        44     9      180.000000        0.197015         4
        11        12        13        14     9        0.000000       -0.098875         1
        11        12        13        14     9      180.000000       -0.275991         2
        11        12        13        14     9        0.000000        0.219330         3
        11        12        13        14     9      180.000000       -0.018668         4
        11        12        13        42     9        0.000000       -0.018325         1
        11        12        13        42     9      180.000000       -0.010219         2
        11        12        13        42     9        0.000000        0.119733         3
        11        12        13        42     9      180.000000        0.059477         4
        11        12        13        43     9        0.000000       -0.018324         1
        11        12        13        43     9      180.000000       -0.010219         2
        11        12        13        43     9        0.000000        0.119733         3
        11        12        13        43     9      180.000000        0.059477         4
        11        12        16        17     9        0.000000       -0.772407         1
        11        12        16        17     9      180.000000       13.817704         2
        11        12        16        17     9        0.000000       -1.124658         3
        11        12        16        17     9      180.000000       -0.523087         4
        11        12        16        18     9        0.000000        3.807755         1
        11        12        16        18     9      180.000000       11.423134         2
        11        12        16        18     9        0.000000        0.950522         3
        11        12        16        18     9      180.000000       -0.728722         4
        12        11        10        14     9        0.000000       -2.932575         1
        12        11        10        14     9      180.000000        7.822339         2
        12        11        10        14     9        0.000000       -0.704966         3
        12        11        10        14     9      180.000000       -1.187778         4
        12        11        10        39     9        0.000000        0.949043         1
        12        11        10        39     9      180.000000       -0.377382         2
        12        11        10        39     9        0.000000       -0.056736         3
        12        11        10        39     9      180.000000        0.252566         4
        12        13        14        15     9        0.000000       -0.177640         1
        12        13        14        15     9      180.000000       -1.441189         2
        12        13        14        15     9        0.000000        0.139510         3
        12        13        14        15     9      180.000000        0.103643         4
        12        13        14        44     9        0.000000        0.949044         1
        12        13        14        44     9      180.000000       -0.377382         2
        12        13        14        44     9        0.000000       -0.056736         3
        12        13        14        44     9      180.000000        0.252566         4
        12        16        18        19     9        0.000000       -0.368550         1
        12        16        18        19     9      180.000000        3.799954         2
        12        16        18        19     9        0.000000       -0.343838         3
        12        16        18        19     9      180.000000        0.220400         4
        12        16        18        24     9        0.000000        1.305198         1
        12        16        18        24     9      180.000000        4.080130         2
        12        16        18        24     9        0.000000       -0.555958         3
        12        16        18        24     9      180.000000        0.231954         4
        13        12        11        40     9        0.000000       -0.018324         1
        13        12        11        40     9      180.000000       -0.010220         2
        13        12        11        40     9        0.000000        0.119733         3
        13        12        11        40     9      180.000000        0.059477         4
        13        12        11        41     9        0.000000       -0.018324         1
        13        12        11        41     9      180.000000       -0.010220         2
        13        12        11        41     9        0.000000        0.119733         3
        13        12        11        41     9      180.000000        0.059477         4
        13        12        16        17     9        0.000000       -0.772407         1
        13        12        16        17     9      180.000000       13.817704         2
        13        12        16        17     9        0.000000       -1.124658         3
        13        12        16        17     9      180.000000       -0.523087         4
        13        12        16        18     9        0.000000        3.807756         1
        13        12        16        18     9      180.000000       11.423134         2
        13        12        16        18     9        0.000000        0.950522         3
        13        12        16        18     9      180.000000       -0.728722         4
        13        14        10        39     9        0.000000       -0.022164         1
        13        14        10        39     9      180.000000        0.142976         2
        13        14        10        39     9        0.000000        0.388149         3
        13        14        10        39     9      180.000000        0.197014         4
        13        14        15        45     9        0.000000       -0.150868         1
        13        14        15        45     9      180.000000        0.072012         2
        13        14        15        45     9        0.000000        0.214875         3
        13        14        15        45     9      180.000000        0.045180         4
        13        14        15        46     9        0.000000       -0.150868         1
        13        14        15        46     9      180.000000        0.072012         2
        13        14        15        46     9        0.000000        0.214875         3
        13        14        15        46     9      180.000000        0.045180         4
        14        10         9        37     9        0.000000        0.005454         1
        14        10         9        37     9      180.000000       -0.187956         2
        14        10         9        37     9        0.000000       -0.253494         3
        14        10         9        37     9      180.000000        0.289446         4
        14        10         9        38     9        0.000000        0.005454         1
        14        10         9        38     9      180.000000       -0.187956         2
        14        10         9        38     9        0.000000       -0.253494         3
        14        10         9        38     9      180.000000        0.289446         4
        14        10        11        40     9        0.000000        0.022483         1
        14        10        11        40     9      180.000000       -0.185436         2
        14        10        11        40     9        0.000000       -0.302149         3
        14        10        11        40     9      180.000000        0.229395         4
        14        10        11        41     9        0.000000        0.022483         1
        14        10        11        41     9      180.000000       -0.185436         2
        14        10        11        41     9        0.000000       -0.302149         3
        14        10        11        41     9      180.000000        0.229395         4
        14        13        12        16     9        0.000000       -0.924897         1
        14        13        12        16     9      180.000000       -0.742800         2
        14        13        12        16     9        0.000000        0.102247         3
        14        13        12        16     9      180.000000        0.138445         4
        15         8         9        37     9        0.000000       -0.042970         1
        15         8         9        37     9      180.000000       -0.061897         2
        15         8         9        37     9        0.000000        0.344874         3
        15         8         9        37     9      180.000000        0.107870         4
        15         8         9        38     9        0.000000       -0.042970         1
        15         8         9        38     9      180.000000       -0.061897         2
        15         8         9        38     9        0.000000        0.344874         3
        15         8         9        38     9      180.000000        0.107870         4
        15        14        10        39     9        0.000000        0.196399         1
        15        14        10        39     9      180.000000        0.124289         2
        15        14        10        39     9        0.000000        0.308842         3
        15        14        10        39     9      180.000000        0.285300         4
        15        14        13        42     9        0.000000       -0.090272         1
        15        14        13        42     9      180.000000        0.043313         2
        15        14        13        42     9        0.000000        0.181102         3
        15        14        13        42     9      180.000000        0.056845         4
        15        14        13        43     9        0.000000       -0.090272         1
        15        14        13        43     9      180.000000        0.043313         2
        15        14        13        43     9        0.000000        0.181102         3
        15        14        13        43     9      180.000000        0.056845         4
        16        12        11        40     9        0.000000        0.071282         1
        16        12        11        40     9      180.000000        0.076324         2
        16        12        11        40     9        0.000000        0.084133         3
        16        12        11        40     9      180.000000       -0.022120         4
        16        12        11        41     9        0.000000        0.071282         1
        16        12        11        41     9      180.000000        0.076324         2
        16        12        11        41     9        0.000000        0.084133         3
        16        12        11        41     9      180.000000       -0.022120         4
        16        12        13        42     9        0.000000        0.071282         1
        16        12        13        42     9      180.000000        0.076325         2
        16        12        13        42     9        0.000000        0.084133         3
        16        12        13        42     9      180.000000       -0.022120         4
        16        12        13        43     9        0.000000        0.071281         1
        16        12        13        43     9      180.000000        0.076325         2
        16        12        13        43     9        0.000000        0.084133         3
        16        12        13        43     9      180.000000       -0.022120         4
        16        18        19        20     9        0.000000        0.323763         1
        16        18        19        20     9      180.000000       17.639032         2
        16        18        19        20     9        0.000000        0.671040         3
        16        18        19        20     9      180.000000       -0.965029         4
        16        18        19        21     9        0.000000       -0.042703         1
        16        18        19        21     9      180.000000       12.507043         2
        16        18        19        21     9        0.000000        0.025809         3
        16        18        19        21     9      180.000000       -0.298713         4
        16        18        24        23     9        0.000000       -0.159485         1
        16        18        24        23     9      180.000000       11.728617         2
        16        18        24        23     9        0.000000       -0.307066         3
        16        18        24        23     9      180.000000       -0.206715         4
        16        18        24        25     9        0.000000       -0.058327         1
        16        18        24        25     9      180.000000       16.156169         2
        16        18        24        25     9        0.000000        0.341551         3
        16        18        24        25     9      180.000000       -0.901250         4
        17        16        18        19     9        0.000000       -1.941661         1
        17        16        18        19     9      180.000000        1.094345         2
        17        16        18        19     9        0.000000        0.427875         3
        17        16        18        19     9      180.000000       -0.033087         4
        17        16        18        24     9        0.000000       -5.069446         1
        17        16        18        24     9      180.000000        1.308677         2
        17        16        18        24     9        0.000000        0.034082         3
        17        16        18        24     9      180.000000       -0.013060         4
        18        19        21        22     9        0.000000       -0.230779         1
        18        19        21        22     9      180.000000       17.563438         2
        18        19        21        22     9        0.000000       -1.369842         3
        18        19        21        22     9      180.000000       -0.339553         4
        18        19        21        47     9        0.000000       -0.133924         1
        18        19        21        47     9      180.000000       13.166471         2
        18        19        21        47     9        0.000000       -0.700048         3
        18        19        21        47     9      180.000000        0.076451         4
        18        24        23        22     9        0.000000       -0.224893         1
        18        24        23        22     9      180.000000       17.844406         2
        18        24        23        22     9        0.000000       -1.762319         3
        18        24        23        22     9      180.000000       -0.293758         4
        18        24        23        49     9        0.000000        0.075314         1
        18        24        23        49     9      180.000000       13.789726         2
        18        24        23        49     9        0.000000       -0.664391         3
        18        24        23        49     9      180.000000        0.152451         4
        18        24        25        26     9        0.000000       -0.928394         1
        18        24        25        26     9      180.000000        3.806786         2
        18        24        25        26     9        0.000000        0.016176         3
        18        24        25        26     9      180.000000       -0.052315         4
        18        24        25        29     9        0.000000       -0.928394         1
        18        24        25        29     9      180.000000        3.806786         2
        18        24        25        29     9        0.000000        0.016176         3
        18        24        25        29     9      180.000000       -0.052316         4
        19        18        24        23     9        0.000000       -0.141325         1
        19        18        24        23     9      180.000000       16.126330         2
        19        18        24        23     9        0.000000       -1.429498         3
        19        18        24        23     9      180.000000       -0.178699         4
        19        18        24        25     9        0.000000        0.375258         1
        19        18        24        25     9      180.000000       18.126685         2
        19        18        24        25     9        0.000000        0.186440         3
        19        18        24        25     9      180.000000       -0.681470         4
        19        21        22        23     9        0.000000       -0.152374         1
        19        21        22        23     9      180.000000       18.716159         2
        19        21        22        23     9        0.000000       -1.818927         3
        19        21        22        23     9      180.000000       -0.453550         4
        19        21        22        48     9        0.000000        0.180905         1
        19        21        22        48     9      180.000000       14.902493         2
        19        21        22        48     9        0.000000       -0.731347         3
        19        21        22        48     9      180.000000        0.027321         4
        20        19        18        24     9        0.000000        0.673215         1
        20        19        18        24     9      180.000000       23.238171         2
        20        19        18        24     9        0.000000        0.955629         3
        20        19        18        24     9      180.000000       -1.163490         4
        20        19        21        22     9        0.000000        0.552801         1
        20        19        21        22     9      180.000000       23.768154         2
        20        19        21        22     9        0.000000        0.607966         3
        20        19        21        22     9      180.000000       -0.689434         4
        20        19        21        47     9        0.000000        0.278729         1
        20        19        21        47     9      180.000000       16.994412         2
        20        19        21        47     9        0.000000        0.338076         3
        20        19        21        47     9      180.000000        0.093222         4
        21        19        18        24     9        0.000000        0.135116         1
        21        19        18        24     9      180.000000       15.814503         2
        21        19        18        24     9        0.000000       -0.812439         3
        21        19        18        24     9      180.000000       -0.422734         4
        21        22        23        24     9        0.000000       -0.192714         1
        21        22        23        24     9      180.000000       18.408477         2
        21        22        23        24     9        0.000000       -1.779917         3
        21        22        23        24     9      180.000000       -0.374514         4
        21        22        23        49     9        0.000000        0.142296         1
        21        22        23        49     9      180.000000       15.187280         2
        21        22        23        49     9        0.000000       -0.758856         3
        21        22        23        49     9      180.000000        0.063922         4
        22        23        24        25     9        0.000000        0.358636         1
        22        23        24        25     9      180.000000       18.702790         2
        22        23        24        25     9        0.000000        0.139137         3
        22        23        24        25     9      180.000000       -0.377297         4
        23        22        21        47     9        0.000000        0.246067         1
        23        22        21        47     9      180.000000       14.028888         2
        23        22        21        47     9        0.000000       -0.660950         3
        23        22        21        47     9      180.000000        0.116191         4
        23        24        25        26     9        0.000000        0.756738         1
        23        24        25        26     9      180.000000        3.189610         2
        23        24        25        26     9        0.000000       -0.349349         3
        23        24        25        26     9      180.000000        0.086097         4
        23        24        25        29     9        0.000000        0.756737         1
        23        24        25        29     9      180.000000        3.189610         2
        23        24        25        29     9        0.000000       -0.349349         3
        23        24        25        29     9      180.000000        0.086097         4
        24        23        22        48     9        0.000000        0.014670         1
        24        23        22        48     9      180.000000       14.765854         2
        24        23        22        48     9        0.000000       -0.786746         3
        24        23        22        48     9      180.000000        0.015738         4
        24        25        26        27     9        0.000000        0.775625         1
        24        25        26        27     9      180.000000       14.213468         2
        24        25        26        27     9        0.000000        0.460130         3
        24        25        26        27     9      180.000000       -0.178471         4
        24        25        29        28     9        0.000000        0.775624         1
        24        25        29        28     9      180.000000       14.213466         2
        24        25        29        28     9        0.000000        0.460130         3
        24        25        29        28     9      180.000000       -0.178471         4
        25        24        23        49     9        0.000000        0.319830         1
        25        24        23        49     9      180.000000       14.602055         2
        25        24        23        49     9        0.000000        0.000376         3
        25        24        23        49     9      180.000000        0.144391         4
        25        26        27        28     9        0.000000       -0.095084         1
        25        26        27        28     9      180.000000       41.109455         2
        25        26        27        28     9        0.000000       -5.890198         3
        25        26        27        28     9      180.000000       -0.007892         4
        25        26        27        50     9        0.000000        1.230246         1
        25        26        27        50     9      180.000000       26.477525         2
        25        26        27        50     9        0.000000       -0.131285         3
        25        26        27        50     9      180.000000       -0.123740         4
        25        29        28        27     9        0.000000       -0.095083         1
        25        29        28        27     9      180.000000       41.109451         2
        25        29        28        27     9        0.000000       -5.890199         3
        25        29        28        27     9      180.000000       -0.007892         4
        25        29        28        51     9        0.000000        1.230248         1
        25        29        28        51     9      180.000000       26.477529         2
        25        29        28        51     9        0.000000       -0.131285         3
        25        29        28        51     9      180.000000       -0.123740         4
        26        25        29        28     9        0.000000       -0.214506         1
        26        25        29        28     9      180.000000       33.461254         2
        26        25        29        28     9        0.000000       -5.627567         3
        26        25        29        28     9      180.000000        0.135267         4
        26        27        28        29     9        0.000000       -0.646393         1
        26        27        28        29     9      180.000000       33.879564         2
        26        27        28        29     9        0.000000       -7.997883         3
        26        27        28        29     9      180.000000       -0.068921         4
        26        27        28        51     9        0.000000        0.399471         1
        26        27        28        51     9      180.000000       15.777790         2
        26        27        28        51     9        0.000000       -0.622625         3
        26        27        28        51     9      180.000000       -0.473181         4
        27        26        25        29     9        0.000000       -0.214504         1
        27        26        25        29     9      180.000000       33.461254         2
        27        26        25        29     9        0.000000       -5.627567         3
        27        26        25        29     9      180.000000        0.135267         4
        29        28        27        50     9        0.000000        0.399472         1
        29        28        27        50     9      180.000000       15.777787         2
        29        28        27        50     9        0.000000       -0.622625         3
        29        28        27        50     9      180.000000       -0.473181         4
        30         4         3        36     9        0.000000       -0.333768         1
        30         4         3        36     9      180.000000       11.274181         2
        30         4         3        36     9        0.000000       -0.393635         3
        30         4         3        36     9      180.000000        0.082016         4
        30        31        32        55     9        0.000000       21.213603         1
        30        31        32        55     9      180.000000        1.731135         2
        30        31        32        55     9        0.000000        0.111065         3
        30        31        32        55     9      180.000000        4.808311         4
        30        31        32        56     9        0.000000       21.213603         1
        30        31        32        56     9      180.000000        1.731135         2
        30        31        32        56     9        0.000000        0.111065         3
        30        31        32        56     9      180.000000        4.808311         4
        30        32        31        53     9        0.000000       21.213603         1
        30        32        31        53     9      180.000000        1.731135         2
        30        32        31        53     9        0.000000        0.111065         3
        30        32        31        53     9      180.000000        4.808311         4
        30        32        31        54     9        0.000000       21.213603         1
        30        32        31        54     9      180.000000        1.731135         2
        30        32        31        54     9        0.000000        0.111065         3
        30        32        31        54     9      180.000000        4.808311         4
        31        30        32        55     9        0.000000       32.000488         1
        31        30        32        55     9      180.000000        2.828077         2
        31        30        32        55     9        0.000000       -0.004704         3
        31        30        32        55     9      180.000000        6.271832         4
        31        30        32        56     9        0.000000       32.000488         1
        31        30        32        56     9      180.000000        2.828077         2
        31        30        32        56     9        0.000000       -0.004704         3
        31        30        32        56     9      180.000000        6.271832         4
        31        32        30        52     9        0.000000       35.699510         1
        31        32        30        52     9      180.000000        4.127935         2
        31        32        30        52     9        0.000000       -0.008454         3
        31        32        30        52     9      180.000000        7.446015         4
        32        30        31        53     9        0.000000       32.000488         1
        32        30        31        53     9      180.000000        2.828077         2
        32        30        31        53     9        0.000000       -0.004704         3
        32        30        31        53     9      180.000000        6.271832         4
        32        30        31        54     9        0.000000       32.000488         1
        32        30        31        54     9      180.000000        2.828077         2
        32        30        31        54     9        0.000000       -0.004704         3
        32        30        31        54     9      180.000000        6.271832         4
        32        31        30        52     9        0.000000       35.699510         1
        32        31        30        52     9      180.000000        4.127935         2
        32        31        30        52     9        0.000000       -0.008454         3
        32        31        30        52     9      180.000000        7.446015         4
        37         9        10        39     9        0.000000       -0.140741         1
        37         9        10        39     9      180.000000       -0.009947         2
        37         9        10        39     9        0.000000        0.295617         3
        37         9        10        39     9      180.000000       -0.018107         4
        38         9        10        39     9        0.000000       -0.140741         1
        38         9        10        39     9      180.000000       -0.009947         2
        38         9        10        39     9        0.000000        0.295617         3
        38         9        10        39     9      180.000000       -0.018107         4
        39        10        11        40     9        0.000000       -0.086595         1
        39        10        11        40     9      180.000000        0.026398         2
        39        10        11        40     9        0.000000        0.269152         3
        39        10        11        40     9      180.000000       -0.020190         4
        39        10        11        41     9        0.000000       -0.086595         1
        39        10        11        41     9      180.000000        0.026398         2
        39        10        11        41     9        0.000000        0.269152         3
        39        10        11        41     9      180.000000       -0.020190         4
        39        10        14        44     9        0.000000        0.223574         1
        39        10        14        44     9      180.000000       -0.077956         2
        39        10        14        44     9        0.000000        0.353694         3
        39        10        14        44     9      180.000000       -0.057173         4
        42        13        14        44     9        0.000000       -0.086594         1
        42        13        14        44     9      180.000000        0.026399         2
        42        13        14        44     9        0.000000        0.269152         3
        42        13        14        44     9      180.000000       -0.020189         4
        43        13        14        44     9        0.000000       -0.086595         1
        43        13        14        44     9      180.000000        0.026398         2
        43        13        14        44     9        0.000000        0.269152         3
        43        13        14        44     9      180.000000       -0.020189         4
        44        14        15        45     9        0.000000       -0.140741         1
        44        14        15        45     9      180.000000       -0.009947         2
        44        14        15        45     9        0.000000        0.295617         3
        44        14        15        45     9      180.000000       -0.018107         4
        44        14        15        46     9        0.000000       -0.140741         1
        44        14        15        46     9      180.000000       -0.009947         2
        44        14        15        46     9        0.000000        0.295617         3
        44        14        15        46     9      180.000000       -0.018107         4
        47        21        22        48     9        0.000000       -0.176698         1
        47        21        22        48     9      180.000000       10.882745         2
        47        21        22        48     9        0.000000       -0.527182         3
        47        21        22        48     9      180.000000        0.131688         4
        48        22        23        49     9        0.000000       -0.152786         1
        48        22        23        49     9      180.000000       12.297012         2
        48        22        23        49     9        0.000000       -0.885313         3
        48        22        23        49     9      180.000000        0.289530         4
        50        27        28        51     9        0.000000       -0.304765         1
        50        27        28        51     9      180.000000        8.321254         2
        50        27        28        51     9        0.000000       -0.141498         3
        50        27        28        51     9      180.000000        0.273252         4
        52        30        31        53     9        0.000000        3.012515         1
        52        30        31        53     9      180.000000       -0.168058         2
        52        30        31        53     9        0.000000        0.043197         3
        52        30        31        53     9      180.000000        1.691549         4
        52        30        31        54     9        0.000000        3.012515         1
        52        30        31        54     9      180.000000       -0.168058         2
        52        30        31        54     9        0.000000        0.043197         3
        52        30        31        54     9      180.000000        1.691549         4
        52        30        32        55     9        0.000000        3.012515         1
        52        30        32        55     9      180.000000       -0.168058         2
        52        30        32        55     9        0.000000        0.043197         3
        52        30        32        55     9      180.000000        1.691549         4
        52        30        32        56     9        0.000000        3.012515         1
        52        30        32        56     9      180.000000       -0.168058         2
        52        30        32        56     9        0.000000        0.043197         3
        52        30        32        56     9      180.000000        1.691549         4
        53        31        32        55     9        0.000000        2.823679         1
        53        31        32        55     9      180.000000       -0.308602         2
        53        31        32        55     9        0.000000        0.116171         3
        53        31        32        55     9      180.000000        1.072530         4
        53        31        32        56     9        0.000000        2.823679         1
        53        31        32        56     9      180.000000       -0.308602         2
        53        31        32        56     9        0.000000        0.116171         3
        53        31        32        56     9      180.000000        1.072530         4
        54        31        32        55     9        0.000000        2.823679         1
        54        31        32        55     9      180.000000       -0.308602         2
        54        31        32        55     9        0.000000        0.116171         3
        54        31        32        55     9      180.000000        1.072530         4
        54        31        32        56     9        0.000000        2.823679         1
        54        31        32        56     9      180.000000       -0.308602         2
        54        31        32        56     9        0.000000        0.116171         3
        54        31        32        56     9      180.000000        1.072530         4

[ dihedrals ] ; impropers
;       ai        aj        ak        al funct           phase               k        pn
         2         1         3         7     4      180.000000       20.966065         2
         2         3         7         1     4      180.000000       20.966065         2
         2         7         1         3     4      180.000000       20.966065         2
         4         3         5        30     4      180.000000       18.791797         2
         4         5        30         3     4      180.000000       18.791797         2
         4        30         3         5     4      180.000000       18.791797         2
         6         5         7         8     4      180.000000       27.893333         2
         6         7         8         5     4      180.000000       27.893333         2
         6         8         5         7     4      180.000000       27.893333         2
        21        19        22        47     4      180.000000        0.307014         2
        21        22        47        19     4      180.000000        0.307014         2
        21        47        19        22     4      180.000000        0.307014         2
        22        21        23        48     4      180.000000        2.050246         2
        22        23        48        21     4      180.000000        2.050246         2
        22        48        21        23     4      180.000000        2.050246         2
        23        22        24        49     4      180.000000        0.161180         2
        23        24        49        22     4      180.000000        0.161180         2
        23        49        22        24     4      180.000000        0.161180         2

[ pairs ]
;       ai        aj funct
         1         4     1
         1         6     1
         1        36     1
         2         5     1
         2         8     1
         2        30     1
         3         6     1
         3        31     1
         3        32     1
         3        33     1
         3        34     1
         3        35     1
         3        52     1
         4         7     1
         4         8     1
         4        53     1
         4        54     1
         4        55     1
         4        56     1
         5         9     1
         5        15     1
         5        31     1
         5        32     1
         5        36     1
         5        52     1
         6        10     1
         6        14     1
         6        30     1
         6        37     1
         6        38     1
         6        45     1
         6        46     1
         7         9     1
         7        15     1
         7        33     1
         7        34     1
         7        35     1
         7        36     1
         8        11     1
         8        13     1
         8        39     1
         8        44     1
         9        12     1
         9        13     1
         9        40     1
         9        41     1
         9        44     1
         9        45     1
         9        46     1
        10        16     1
        10        42     1
        10        43     1
        10        45     1
        10        46     1
        11        15     1
        11        17     1
        11        18     1
        11        37     1
        11        38     1
        11        42     1
        11        43     1
        11        44     1
        12        15     1
        12        19     1
        12        24     1
        12        39     1
        12        44     1
        13        17     1
        13        18     1
        13        39     1
        13        40     1
        13        41     1
        13        45     1
        13        46     1
        14        16     1
        14        37     1
        14        38     1
        14        40     1
        14        41     1
        15        37     1
        15        38     1
        15        39     1
        15        42     1
        15        43     1
        16        20     1
        16        21     1
        16        23     1
        16        25     1
        16        40     1
        16        41     1
        16        42     1
        16        43     1
        17        19     1
        17        24     1
        18        22     1
        18        26     1
        18        29     1
        18        47     1
        18        49     1
        19        23     1
        19        25     1
        19        48     1
        20        22     1
        20        24     1
        20        47     1
        21        24     1
        21        49     1
        22        25     1
        23        26     1
        23        29     1
        23        47     1
        24        27     1
        24        28     1
        24        48     1
        25        49     1
        25        50     1
        25        51     1
        26        51     1
        29        50     1
        30        36     1
        37        39     1
        38        39     1
        39        40     1
        39        41     1
        39        44     1
        42        44     1
        43        44     1
        44        45     1
        44        46     1
        47        48     1
        48        49     1
        50        51     1
        52        53     1
        52        54     1
        52        55     1
        52        56     1
        53        55     1
        53        56     1
        54        55     1
        54        56     1
