; ITP file created by ByteFF-ML, 2025-12-06 04:40:11.248013

[ atomtypes ]
;name           bonded.type        at.num        mass        charge   ptype           sigma         epsilon
 c0bf                                   6      0.0000       0.00000       A     3.39724e-01     4.49702e-01
 o1bf                                   8      0.0000       0.00000       A     3.15527e-01     3.03615e-01
 c2bf                                   6      0.0000       0.00000       A     3.31402e-01     4.13866e-01
 o3bf                                   8      0.0000       0.00000       A     3.04568e-01     6.10752e-01
 c4bf                                   6      0.0000       0.00000       A     3.31085e-01     4.12496e-01
 c5bf                                   6      0.0000       0.00000       A     3.31746e-01     4.11376e-01
 n6bf                                   7      0.0000       0.00000       A     3.38480e-01     3.95994e-01
 c7bf                                   6      0.0000       0.00000       A     3.31313e-01     4.13846e-01
 n8bf                                   7      0.0000       0.00000       A     3.38506e-01     3.95480e-01
 c9bf                                   6      0.0000       0.00000       A     3.31604e-01     4.11979e-01
 c10bf                                  6      0.0000       0.00000       A     3.39481e-01     4.53635e-01
 f11bf                                  9      0.0000       0.00000       A     3.03594e-01     3.47807e-01
 f12bf                                  9      0.0000       0.00000       A     3.03594e-01     3.47807e-01
 f13bf                                  9      0.0000       0.00000       A     3.03594e-01     3.47807e-01
 n14bf                                  7      0.0000       0.00000       A     3.19420e-01     8.94129e-01
 c15bf                                  6      0.0000       0.00000       A     3.39585e-01     4.49212e-01
 c16bf                                  6      0.0000       0.00000       A     3.39712e-01     4.49806e-01
 c17bf                                  6      0.0000       0.00000       A     3.39727e-01     4.50797e-01
 n18bf                                  7      0.0000       0.00000       A     3.18172e-01     6.81534e-01
 c19bf                                  6      0.0000       0.00000       A     3.39727e-01     4.50797e-01
 c20bf                                  6      0.0000       0.00000       A     3.39712e-01     4.49806e-01
 c21bf                                  6      0.0000       0.00000       A     3.39585e-01     4.49212e-01
 c22bf                                  6      0.0000       0.00000       A     3.31327e-01     4.13248e-01
 o23bf                                  8      0.0000       0.00000       A     3.04514e-01     6.13792e-01
 c24bf                                  6      0.0000       0.00000       A     3.31273e-01     4.13283e-01
 c25bf                                  6      0.0000       0.00000       A     3.31521e-01     4.13918e-01
 f26bf                                  9      0.0000       0.00000       A     3.03540e-01     3.48621e-01
 c27bf                                  6      0.0000       0.00000       A     3.31463e-01     4.12493e-01
 c28bf                                  6      0.0000       0.00000       A     3.31469e-01     4.12700e-01
 c29bf                                  6      0.0000       0.00000       A     3.31436e-01     4.11484e-01
 c30bf                                  6      0.0000       0.00000       A     3.31571e-01     4.13495e-01
 n31bf                                  7      0.0000       0.00000       A     3.20910e-01     8.46558e-01
 n32bf                                  7      0.0000       0.00000       A     3.38251e-01     3.94826e-01
 c33bf                                  6      0.0000       0.00000       A     3.31301e-01     4.12308e-01
 c34bf                                  6      0.0000       0.00000       A     3.31301e-01     4.12308e-01
 n35bf                                  7      0.0000       0.00000       A     3.38251e-01     3.94826e-01
 h36bf                                  1      0.0000       0.00000       A     2.42003e-01     8.72443e-02
 h37bf                                  1      0.0000       0.00000       A     2.42003e-01     8.72443e-02
 h38bf                                  1      0.0000       0.00000       A     2.42003e-01     8.72443e-02
 h39bf                                  1      0.0000       0.00000       A     2.53604e-01     6.76462e-02
 h40bf                                  1      0.0000       0.00000       A     2.42127e-01     8.72842e-02
 h41bf                                  1      0.0000       0.00000       A     2.42127e-01     8.72842e-02
 h42bf                                  1      0.0000       0.00000       A     2.60149e-01     8.67575e-02
 h43bf                                  1      0.0000       0.00000       A     2.42171e-01     8.72571e-02
 h44bf                                  1      0.0000       0.00000       A     2.42171e-01     8.72571e-02
 h45bf                                  1      0.0000       0.00000       A     2.42171e-01     8.72571e-02
 h46bf                                  1      0.0000       0.00000       A     2.42171e-01     8.72571e-02
 h47bf                                  1      0.0000       0.00000       A     2.60149e-01     8.67575e-02
 h48bf                                  1      0.0000       0.00000       A     2.42127e-01     8.72842e-02
 h49bf                                  1      0.0000       0.00000       A     2.42127e-01     8.72842e-02
 h50bf                                  1      0.0000       0.00000       A     2.62509e-01     6.72536e-02
 h51bf                                  1      0.0000       0.00000       A     2.62495e-01     6.71945e-02
 h52bf                                  1      0.0000       0.00000       A     2.62555e-01     6.79734e-02
 h53bf                                  1      0.0000       0.00000       A     2.53896e-01     6.74946e-02
 h54bf                                  1      0.0000       0.00000       A     2.53896e-01     6.74946e-02

[ moleculetype ]
;name             nrexcl
 set_1_3               3

[ atoms ]
;       nr            type      resi   res      atom      cgnr      charge          mass ; qtot
         1            c0bf         1   UNL        c0         1     0.14943       12.0110 ; qtot    0.149
         2            o1bf         1   UNL        o1         2    -0.43226       15.9990 ; qtot   -0.283
         3            c2bf         1   UNL        c2         3     0.60760       12.0110 ; qtot    0.325
         4            o3bf         1   UNL        o3         4    -0.45566       15.9990 ; qtot   -0.131
         5            c4bf         1   UNL        c4         5    -0.23744       12.0110 ; qtot   -0.368
         6            c5bf         1   UNL        c5         6     0.20253       12.0110 ; qtot   -0.166
         7            n6bf         1   UNL        n6         7    -0.24419       14.0070 ; qtot   -0.410
         8            c7bf         1   UNL        c7         8     0.40468       12.0110 ; qtot   -0.005
         9            n8bf         1   UNL        n8         9    -0.22079       14.0070 ; qtot   -0.226
        10            c9bf         1   UNL        c9        10     0.11221       12.0110 ; qtot   -0.114
        11           c10bf         1   UNL       c10        11     0.26289       12.0110 ; qtot    0.149
        12           f11bf         1   UNL       f11        12    -0.08870       18.9980 ; qtot    0.060
        13           f12bf         1   UNL       f12        13    -0.08870       18.9980 ; qtot   -0.028
        14           f13bf         1   UNL       f13        14    -0.08870       18.9980 ; qtot   -0.117
        15           n14bf         1   UNL       n14        15    -0.76865       14.0070 ; qtot   -0.886
        16           c15bf         1   UNL       c15        16     0.23699       12.0110 ; qtot   -0.649
        17           c16bf         1   UNL       c16        17    -0.10223       12.0110 ; qtot   -0.751
        18           c17bf         1   UNL       c17        18     0.11230       12.0110 ; qtot   -0.639
        19           n18bf         1   UNL       n18        19    -0.41240       14.0070 ; qtot   -1.051
        20           c19bf         1   UNL       c19        20     0.11230       12.0110 ; qtot   -0.939
        21           c20bf         1   UNL       c20        21    -0.10223       12.0110 ; qtot   -1.041
        22           c21bf         1   UNL       c21        22     0.23699       12.0110 ; qtot   -0.804
        23           c22bf         1   UNL       c22        23     0.64532       12.0110 ; qtot   -0.159
        24           o23bf         1   UNL       o23        24    -0.58742       15.9990 ; qtot   -0.746
        25           c24bf         1   UNL       c24        25    -0.15190       12.0110 ; qtot   -0.898
        26           c25bf         1   UNL       c25        26     0.19456       12.0110 ; qtot   -0.703
        27           f26bf         1   UNL       f26        27    -0.16798       18.9980 ; qtot   -0.871
        28           c27bf         1   UNL       c27        28    -0.14840       12.0110 ; qtot   -1.020
        29           c28bf         1   UNL       c28        29    -0.06562       12.0110 ; qtot   -1.085
        30           c29bf         1   UNL       c29        30    -0.10373       12.0110 ; qtot   -1.189
        31           c30bf         1   UNL       c30        31     0.06898       12.0110 ; qtot   -1.120
        32           n31bf         1   UNL       n31        32     0.31512       14.0070 ; qtot   -0.805
        33           n32bf         1   UNL       n32        33    -0.47882       14.0070 ; qtot   -1.284
        34           c33bf         1   UNL       c33        34     0.20629       12.0110 ; qtot   -1.078
        35           c34bf         1   UNL       c34        35     0.20629       12.0110 ; qtot   -0.871
        36           n35bf         1   UNL       n35        36    -0.47882       14.0070 ; qtot   -1.350
        37           h36bf         1   UNL       h36        37     0.05393        1.0080 ; qtot   -1.296
        38           h37bf         1   UNL       h37        38     0.05393        1.0080 ; qtot   -1.242
        39           h38bf         1   UNL       h38        39     0.05393        1.0080 ; qtot   -1.188
        40           h39bf         1   UNL       h39        40     0.04832        1.0080 ; qtot   -1.140
        41           h40bf         1   UNL       h40        41     0.05798        1.0080 ; qtot   -1.082
        42           h41bf         1   UNL       h41        42     0.05798        1.0080 ; qtot   -1.024
        43           h42bf         1   UNL       h42        43     0.07208        1.0080 ; qtot   -0.952
        44           h43bf         1   UNL       h43        44     0.06015        1.0080 ; qtot   -0.892
        45           h44bf         1   UNL       h44        45     0.06015        1.0080 ; qtot   -0.832
        46           h45bf         1   UNL       h45        46     0.06015        1.0080 ; qtot   -0.772
        47           h46bf         1   UNL       h46        47     0.06015        1.0080 ; qtot   -0.711
        48           h47bf         1   UNL       h47        48     0.07208        1.0080 ; qtot   -0.639
        49           h48bf         1   UNL       h48        49     0.05798        1.0080 ; qtot   -0.581
        50           h49bf         1   UNL       h49        50     0.05798        1.0080 ; qtot   -0.523
        51           h50bf         1   UNL       h50        51     0.14181        1.0080 ; qtot   -0.382
        52           h51bf         1   UNL       h51        52     0.12690        1.0080 ; qtot   -0.255
        53           h52bf         1   UNL       h52        53     0.14214        1.0080 ; qtot   -0.113
        54           h53bf         1   UNL       h53        54     0.05626        1.0080 ; qtot   -0.056
        55           h54bf         1   UNL       h54        55     0.05626        1.0080 ; qtot   -0.000

[ bonds ]
;       ai        aj funct               r               k
         1         2     1        0.144364   180946.967969
         1        37     1        0.109098   309415.737988
         1        38     1        0.109098   309415.737988
         1        39     1        0.109098   309415.737988
         2         3     1        0.134509   259761.152686
         3         4     1        0.121537   665820.063672
         3         5     1        0.149421   187513.605811
         5         6     1        0.140599   272505.217285
         5        10     1        0.140545   272428.503809
         6         7     1        0.132666   376163.740674
         6        40     1        0.108643   322401.690088
         7         8     1        0.135805   243723.847998
         8         9     1        0.135862   240816.856689
         8        15     1        0.135089   342931.023389
         9        10     1        0.132339   359293.849609
        10        11     1        0.153093   182516.746851
        11        12     1        0.135003   240587.558984
        11        13     1        0.135003   240587.558984
        11        14     1        0.135003   240587.558984
        15        16     1        0.146901   180858.737256
        15        22     1        0.146901   180858.737256
        16        17     1        0.153334   175036.020947
        16        41     1        0.109481   294444.786377
        16        42     1        0.109481   294444.786377
        17        18     1        0.153427   175080.787500
        17        21     1        0.154277   149842.130322
        17        43     1        0.109325   303915.887354
        18        19     1        0.147261   177221.078174
        18        44     1        0.109385   298254.744336
        18        45     1        0.109385   298254.744336
        19        20     1        0.147261   177221.103711
        19        23     1        0.135519   319235.369434
        20        21     1        0.153427   175080.787500
        20        46     1        0.109385   298254.744336
        20        47     1        0.109385   298254.744336
        21        22     1        0.153334   175036.020947
        21        48     1        0.109325   303915.912891
        22        49     1        0.109481   294444.811914
        22        50     1        0.109481   294444.811914
        23        24     1        0.123360   594256.707031
        23        25     1        0.151390   177572.570947
        25        26     1        0.139458   293723.388574
        25        31     1        0.140413   276391.377979
        26        27     1        0.135748   284734.964502
        26        28     1        0.139016   308702.537598
        28        29     1        0.139696   310400.653223
        28        51     1        0.108455   325846.007715
        29        30     1        0.139473   319062.661963
        29        52     1        0.108533   323324.933203
        30        31     1        0.139859   295100.783643
        30        53     1        0.108380   327020.204004
        31        32     1        0.142246   231473.134814
        32        33     1        0.134040   244717.267090
        32        36     1        0.134040   244717.267090
        33        34     1        0.133423   350873.498535
        34        35     1        0.141148   279463.543311
        34        54     1        0.108128   339085.415625
        35        36     1        0.133423   350873.498535
        35        55     1        0.108128   339085.415625

[ angles ]
;       ai        aj        ak funct           theta             cth
         1         2         3     1      115.311905      537.671516
         2         1        37     1      108.671265      474.605550
         2         1        38     1      108.671265      474.605550
         2         1        39     1      108.671265      474.605550
         2         3         4     1      124.368065      577.792996
         2         3         5     1      111.722488      485.590497
         3         5         6     1      119.184288      615.672318
         3         5        10     1      126.353928      520.430201
         4         3         5     1      124.170509      492.353426
         5         6         7     1      123.828506      729.895021
         5         6        40     1      119.449936      390.263245
         5        10         9     1      123.058372      712.688818
         5        10        11     1      123.011642      435.837313
         6         5        10     1      114.619675      721.704886
         6         7         8     1      116.057632      959.392745
         7         6        40     1      116.481705      381.357465
         7         8         9     1      125.035011      634.633111
         7         8        15     1      117.321884      568.203365
         8         9        10     1      116.903076      893.009093
         8        15        16     1      123.189659      481.233962
         8        15        22     1      123.189659      481.233962
         9         8        15     1      117.260765      548.442494
         9        10        11     1      114.029579      429.776112
        10        11        12     1      111.285805      563.056744
        10        11        13     1      111.285805      563.056744
        10        11        14     1      111.285805      563.056744
        12        11        13     1      107.527138      697.126313
        12        11        14     1      107.527138      697.126313
        13        11        14     1      107.527138      697.126313
        15        16        17     1      102.896164      518.893122
        15        16        41     1      110.657394      411.591551
        15        16        42     1      110.657394      411.591551
        15        22        21     1      102.896164      518.893186
        15        22        49     1      110.657394      411.591519
        15        22        50     1      110.657394      411.591519
        16        15        22     1      113.044533      338.359293
        16        17        18     1      115.967918      490.766039
        16        17        21     1      103.531944      553.400524
        16        17        43     1      110.411415      471.837231
        17        16        41     1      112.134521      456.886371
        17        16        42     1      112.134521      456.886371
        17        18        19     1      103.310646      531.297103
        17        18        44     1      112.216675      453.127085
        17        18        45     1      112.216675      453.127085
        17        21        20     1      103.849327      536.391532
        17        21        22     1      103.531944      553.400524
        17        21        48     1      111.068626      475.836438
        18        17        21     1      103.849327      536.391532
        18        17        43     1      110.495773      465.529182
        18        19        20     1      111.682663      397.236312
        18        19        23     1      123.751732      462.075033
        19        18        44     1      110.410095      437.420741
        19        18        45     1      110.410095      437.420741
        19        20        21     1      103.310646      531.297103
        19        20        46     1      110.410095      437.420741
        19        20        47     1      110.410095      437.420741
        19        23        24     1      123.358742      631.986382
        19        23        25     1      116.499901      442.236497
        20        19        23     1      123.751732      462.075033
        20        21        22     1      115.967918      490.766039
        20        21        48     1      110.495773      465.529246
        21        17        43     1      111.068642      475.836438
        21        20        46     1      112.216675      453.127085
        21        20        47     1      112.216675      453.127085
        21        22        49     1      112.134521      456.886371
        21        22        50     1      112.134521      456.886371
        22        21        48     1      110.411415      471.837167
        23        25        26     1      120.170364      658.951909
        23        25        31     1      123.059631      563.306688
        24        23        25     1      119.672501      497.066650
        25        26        27     1      118.381653      447.457304
        25        26        28     1      123.063400      625.661925
        25        31        30     1      121.246506      661.938219
        25        31        32     1      119.852539      464.186441
        26        25        31     1      116.733643      734.512130
        26        28        29     1      118.224327      691.816190
        26        28        51     1      119.628578      419.195289
        27        26        28     1      118.309547      519.263729
        28        29        30     1      120.316055      729.245229
        28        29        52     1      119.748978      430.367360
        29        28        51     1      122.164230      418.572822
        29        30        31     1      119.566689      681.094307
        29        30        53     1      121.180099      420.410728
        30        29        52     1      119.884033      429.820291
        30        31        32     1      118.315903      543.668651
        31        30        53     1      119.153175      420.650841
        31        32        33     1      121.993149      521.996072
        31        32        36     1      121.993149      521.996072
        32        33        34     1      103.760353      480.370712
        32        36        35     1      103.760353      480.370712
        33        32        36     1      115.047997      210.842914
        33        34        35     1      108.709312      295.765661
        33        34        54     1      120.742882      391.074016
        34        35        36     1      108.709312      295.765661
        34        35        55     1      130.286758      343.611766
        35        34        54     1      130.286758      343.611766
        36        35        55     1      120.742874      391.073952
        37         1        38     1      110.334000      330.800756
        37         1        39     1      110.334000      330.800756
        38         1        39     1      110.334000      330.800756
        41        16        42     1      107.788414      347.454335
        44        18        45     1      107.816490      348.007916
        46        20        47     1      107.816490      348.007948
        49        22        50     1      107.788414      347.454367

[ dihedrals ] ; propers for gromacs 4.5 or higher, use funct 9
;       ai        aj        ak        al funct           phase               k        pn
         1         2         3         4     9        0.000000       -0.190401         1
         1         2         3         4     9      180.000000        9.316980         2
         1         2         3         4     9        0.000000       -0.922340         3
         1         2         3         4     9      180.000000        0.315387         4
         1         2         3         5     9        0.000000       -0.198656         1
         1         2         3         5     9      180.000000       14.072057         2
         1         2         3         5     9        0.000000        1.555175         3
         1         2         3         5     9      180.000000       -0.071274         4
         2         3         5         6     9        0.000000        0.845292         1
         2         3         5         6     9      180.000000        4.313686         2
         2         3         5         6     9        0.000000        0.031479         3
         2         3         5         6     9      180.000000        0.109045         4
         2         3         5        10     9        0.000000       -0.880673         1
         2         3         5        10     9      180.000000        3.901572         2
         2         3         5        10     9        0.000000       -0.193026         3
         2         3         5        10     9      180.000000        0.246755         4
         3         2         1        37     9        0.000000        0.060792         1
         3         2         1        37     9      180.000000        0.002949         2
         3         2         1        37     9        0.000000        0.013992         3
         3         2         1        37     9      180.000000       -0.009349         4
         3         2         1        38     9        0.000000        0.060792         1
         3         2         1        38     9      180.000000        0.002949         2
         3         2         1        38     9        0.000000        0.013992         3
         3         2         1        38     9      180.000000       -0.009349         4
         3         2         1        39     9        0.000000        0.060792         1
         3         2         1        39     9      180.000000        0.002949         2
         3         2         1        39     9        0.000000        0.013992         3
         3         2         1        39     9      180.000000       -0.009349         4
         3         5         6         7     9        0.000000        0.217667         1
         3         5         6         7     9      180.000000       12.911230         2
         3         5         6         7     9        0.000000        0.230228         3
         3         5         6         7     9      180.000000       -0.548175         4
         3         5         6        40     9        0.000000        0.075912         1
         3         5         6        40     9      180.000000       11.118053         2
         3         5         6        40     9        0.000000       -0.426734         3
         3         5         6        40     9      180.000000        0.040631         4
         3         5        10         9     9        0.000000        0.077788         1
         3         5        10         9     9      180.000000       11.442655         2
         3         5        10         9     9        0.000000        0.156514         3
         3         5        10         9     9      180.000000       -0.521157         4
         3         5        10        11     9        0.000000        0.599177         1
         3         5        10        11     9      180.000000       12.184402         2
         3         5        10        11     9        0.000000        0.873075         3
         3         5        10        11     9      180.000000       -0.659514         4
         4         3         5         6     9        0.000000        0.169150         1
         4         3         5         6     9      180.000000        2.630309         2
         4         3         5         6     9        0.000000       -0.110923         3
         4         3         5         6     9      180.000000        0.022133         4
         4         3         5        10     9        0.000000       -0.210308         1
         4         3         5        10     9      180.000000        2.056900         2
         4         3         5        10     9        0.000000       -0.363259         3
         4         3         5        10     9      180.000000        0.101309         4
         5         6         7         8     9        0.000000       -0.626127         1
         5         6         7         8     9      180.000000       19.397098         2
         5         6         7         8     9        0.000000       -0.932527         3
         5         6         7         8     9      180.000000       -0.336623         4
         5        10         9         8     9        0.000000       -0.920280         1
         5        10         9         8     9      180.000000       18.128096         2
         5        10         9         8     9        0.000000       -1.176594         3
         5        10         9         8     9      180.000000       -0.456247         4
         5        10        11        12     9        0.000000       -0.197790         1
         5        10        11        12     9      180.000000       -0.082143         2
         5        10        11        12     9        0.000000       -0.118138         3
         5        10        11        12     9      180.000000        0.038966         4
         5        10        11        13     9        0.000000       -0.197790         1
         5        10        11        13     9      180.000000       -0.082143         2
         5        10        11        13     9        0.000000       -0.118138         3
         5        10        11        13     9      180.000000        0.038966         4
         5        10        11        14     9        0.000000       -0.197790         1
         5        10        11        14     9      180.000000       -0.082143         2
         5        10        11        14     9        0.000000       -0.118138         3
         5        10        11        14     9      180.000000        0.038966         4
         6         5        10         9     9        0.000000        0.094059         1
         6         5        10         9     9      180.000000       13.896808         2
         6         5        10         9     9        0.000000       -0.388996         3
         6         5        10         9     9      180.000000       -0.346870         4
         6         5        10        11     9        0.000000        0.894559         1
         6         5        10        11     9      180.000000       12.816267         2
         6         5        10        11     9        0.000000        0.477477         3
         6         5        10        11     9      180.000000       -0.429242         4
         6         7         8         9     9        0.000000        1.033552         1
         6         7         8         9     9      180.000000        8.675973         2
         6         7         8         9     9        0.000000        0.648858         3
         6         7         8         9     9      180.000000       -0.500745         4
         6         7         8        15     9        0.000000        0.330886         1
         6         7         8        15     9      180.000000       13.552605         2
         6         7         8        15     9        0.000000        0.657687         3
         6         7         8        15     9      180.000000       -0.827575         4
         7         6         5        10     9        0.000000        0.397547         1
         7         6         5        10     9      180.000000       14.127643         2
         7         6         5        10     9        0.000000       -0.049350         3
         7         6         5        10     9      180.000000       -0.469606         4
         7         8         9        10     9        0.000000        1.553108         1
         7         8         9        10     9      180.000000        8.264454         2
         7         8         9        10     9        0.000000        0.845918         3
         7         8         9        10     9      180.000000       -0.663519         4
         7         8        15        16     9        0.000000        0.685336         1
         7         8        15        16     9      180.000000       11.153710         2
         7         8        15        16     9        0.000000       -0.189630         3
         7         8        15        16     9      180.000000       -0.955911         4
         7         8        15        22     9        0.000000        0.685335         1
         7         8        15        22     9      180.000000       11.153710         2
         7         8        15        22     9        0.000000       -0.189630         3
         7         8        15        22     9      180.000000       -0.955910         4
         8         7         6        40     9        0.000000        0.201909         1
         8         7         6        40     9      180.000000       16.484268         2
         8         7         6        40     9        0.000000       -0.181501         3
         8         7         6        40     9      180.000000       -0.205037         4
         8         9        10        11     9        0.000000        0.763644         1
         8         9        10        11     9      180.000000       19.433904         2
         8         9        10        11     9        0.000000        0.762627         3
         8         9        10        11     9      180.000000       -0.837556         4
         8        15        16        17     9        0.000000       -3.165991         1
         8        15        16        17     9      180.000000       -0.559785         2
         8        15        16        17     9        0.000000        0.348002         3
         8        15        16        17     9      180.000000        0.231727         4
         8        15        16        41     9        0.000000        0.033496         1
         8        15        16        41     9      180.000000       -0.087992         2
         8        15        16        41     9        0.000000        0.474182         3
         8        15        16        41     9      180.000000       -0.005628         4
         8        15        16        42     9        0.000000        0.033496         1
         8        15        16        42     9      180.000000       -0.087992         2
         8        15        16        42     9        0.000000        0.474182         3
         8        15        16        42     9      180.000000       -0.005628         4
         8        15        22        21     9        0.000000       -3.165988         1
         8        15        22        21     9      180.000000       -0.559785         2
         8        15        22        21     9        0.000000        0.348002         3
         8        15        22        21     9      180.000000        0.231727         4
         8        15        22        49     9        0.000000        0.033496         1
         8        15        22        49     9      180.000000       -0.087991         2
         8        15        22        49     9        0.000000        0.474183         3
         8        15        22        49     9      180.000000       -0.005628         4
         8        15        22        50     9        0.000000        0.033496         1
         8        15        22        50     9      180.000000       -0.087991         2
         8        15        22        50     9        0.000000        0.474183         3
         8        15        22        50     9      180.000000       -0.005628         4
         9         8        15        16     9        0.000000        0.415215         1
         9         8        15        16     9      180.000000       11.208132         2
         9         8        15        16     9        0.000000       -0.211785         3
         9         8        15        16     9      180.000000       -0.882579         4
         9         8        15        22     9        0.000000        0.415216         1
         9         8        15        22     9      180.000000       11.208131         2
         9         8        15        22     9        0.000000       -0.211786         3
         9         8        15        22     9      180.000000       -0.882579         4
         9        10        11        12     9        0.000000        0.078189         1
         9        10        11        12     9      180.000000       -0.051404         2
         9        10        11        12     9        0.000000        0.093890         3
         9        10        11        12     9      180.000000        0.072484         4
         9        10        11        13     9        0.000000        0.078189         1
         9        10        11        13     9      180.000000       -0.051404         2
         9        10        11        13     9        0.000000        0.093890         3
         9        10        11        13     9      180.000000        0.072484         4
         9        10        11        14     9        0.000000        0.078189         1
         9        10        11        14     9      180.000000       -0.051404         2
         9        10        11        14     9        0.000000        0.093890         3
         9        10        11        14     9      180.000000        0.072484         4
        10         5         6        40     9        0.000000        0.441808         1
        10         5         6        40     9      180.000000       12.467466         2
        10         5         6        40     9        0.000000       -0.243934         3
        10         5         6        40     9      180.000000       -0.062238         4
        10         9         8        15     9        0.000000        1.113550         1
        10         9         8        15     9      180.000000       13.761608         2
        10         9         8        15     9        0.000000        0.698718         3
        10         9         8        15     9      180.000000       -1.115467         4
        15        16        17        18     9        0.000000        0.125825         1
        15        16        17        18     9      180.000000       -1.570473         2
        15        16        17        18     9        0.000000        0.127607         3
        15        16        17        18     9      180.000000        0.190323         4
        15        16        17        21     9        0.000000       -3.202014         1
        15        16        17        21     9      180.000000       11.750498         2
        15        16        17        21     9        0.000000       -0.669209         3
        15        16        17        21     9      180.000000       -2.372409         4
        15        16        17        43     9        0.000000        3.051093         1
        15        16        17        43     9      180.000000       -0.790161         2
        15        16        17        43     9        0.000000       -0.187614         3
        15        16        17        43     9      180.000000        0.436888         4
        15        22        21        17     9        0.000000       -3.202011         1
        15        22        21        17     9      180.000000       11.750500         2
        15        22        21        17     9        0.000000       -0.669209         3
        15        22        21        17     9      180.000000       -2.372410         4
        15        22        21        20     9        0.000000        0.125825         1
        15        22        21        20     9      180.000000       -1.570472         2
        15        22        21        20     9        0.000000        0.127607         3
        15        22        21        20     9      180.000000        0.190323         4
        15        22        21        48     9        0.000000        3.051090         1
        15        22        21        48     9      180.000000       -0.790161         2
        15        22        21        48     9        0.000000       -0.187614         3
        15        22        21        48     9      180.000000        0.436888         4
        16        15        22        21     9        0.000000       -0.505979         1
        16        15        22        21     9      180.000000        0.699198         2
        16        15        22        21     9        0.000000        0.376289         3
        16        15        22        21     9      180.000000       -0.310398         4
        16        15        22        49     9        0.000000       -0.039861         1
        16        15        22        49     9      180.000000       -0.062665         2
        16        15        22        49     9        0.000000        0.341065         3
        16        15        22        49     9      180.000000        0.107718         4
        16        15        22        50     9        0.000000       -0.039861         1
        16        15        22        50     9      180.000000       -0.062665         2
        16        15        22        50     9        0.000000        0.341065         3
        16        15        22        50     9      180.000000        0.107718         4
        16        17        18        19     9        0.000000       -0.177639         1
        16        17        18        19     9      180.000000       -1.441188         2
        16        17        18        19     9        0.000000        0.139510         3
        16        17        18        19     9      180.000000        0.103643         4
        16        17        18        44     9        0.000000       -0.090271         1
        16        17        18        44     9      180.000000        0.043314         2
        16        17        18        44     9        0.000000        0.181102         3
        16        17        18        44     9      180.000000        0.056845         4
        16        17        18        45     9        0.000000       -0.090271         1
        16        17        18        45     9      180.000000        0.043314         2
        16        17        18        45     9        0.000000        0.181102         3
        16        17        18        45     9      180.000000        0.056845         4
        16        17        21        20     9        0.000000       -1.429697         1
        16        17        21        20     9      180.000000       -0.955407         2
        16        17        21        20     9        0.000000        0.546147         3
        16        17        21        20     9      180.000000       -0.724521         4
        16        17        21        22     9        0.000000       -1.723216         1
        16        17        21        22     9      180.000000       -1.104300         2
        16        17        21        22     9        0.000000        0.465854         3
        16        17        21        22     9      180.000000       -0.749204         4
        16        17        21        48     9        0.000000        0.196400         1
        16        17        21        48     9      180.000000        0.124290         2
        16        17        21        48     9        0.000000        0.308843         3
        16        17        21        48     9      180.000000        0.285300         4
        17        16        15        22     9        0.000000       -0.505981         1
        17        16        15        22     9      180.000000        0.699200         2
        17        16        15        22     9        0.000000        0.376290         3
        17        16        15        22     9      180.000000       -0.310399         4
        17        18        19        20     9        0.000000       -0.098874         1
        17        18        19        20     9      180.000000       -0.275992         2
        17        18        19        20     9        0.000000        0.219330         3
        17        18        19        20     9      180.000000       -0.018668         4
        17        18        19        23     9        0.000000       -0.924898         1
        17        18        19        23     9      180.000000       -0.742800         2
        17        18        19        23     9        0.000000        0.102247         3
        17        18        19        23     9      180.000000        0.138445         4
        17        21        20        19     9        0.000000       -2.932575         1
        17        21        20        19     9      180.000000        7.822341         2
        17        21        20        19     9        0.000000       -0.704965         3
        17        21        20        19     9      180.000000       -1.187778         4
        17        21        20        46     9        0.000000        0.022483         1
        17        21        20        46     9      180.000000       -0.185436         2
        17        21        20        46     9        0.000000       -0.302149         3
        17        21        20        46     9      180.000000        0.229395         4
        17        21        20        47     9        0.000000        0.022483         1
        17        21        20        47     9      180.000000       -0.185436         2
        17        21        20        47     9        0.000000       -0.302149         3
        17        21        20        47     9      180.000000        0.229395         4
        17        21        22        49     9        0.000000        0.005453         1
        17        21        22        49     9      180.000000       -0.187956         2
        17        21        22        49     9        0.000000       -0.253493         3
        17        21        22        49     9      180.000000        0.289446         4
        17        21        22        50     9        0.000000        0.005453         1
        17        21        22        50     9      180.000000       -0.187956         2
        17        21        22        50     9        0.000000       -0.253493         3
        17        21        22        50     9      180.000000        0.289446         4
        18        17        16        41     9        0.000000       -0.150868         1
        18        17        16        41     9      180.000000        0.072012         2
        18        17        16        41     9        0.000000        0.214875         3
        18        17        16        41     9      180.000000        0.045180         4
        18        17        16        42     9        0.000000       -0.150868         1
        18        17        16        42     9      180.000000        0.072012         2
        18        17        16        42     9        0.000000        0.214875         3
        18        17        16        42     9      180.000000        0.045180         4
        18        17        21        20     9        0.000000       -0.903494         1
        18        17        21        20     9      180.000000       -0.930898         2
        18        17        21        20     9        0.000000        0.568820         3
        18        17        21        20     9      180.000000       -0.686260         4
        18        17        21        22     9        0.000000       -1.429699         1
        18        17        21        22     9      180.000000       -0.955405         2
        18        17        21        22     9        0.000000        0.546147         3
        18        17        21        22     9      180.000000       -0.724522         4
        18        17        21        48     9        0.000000       -0.022164         1
        18        17        21        48     9      180.000000        0.142975         2
        18        17        21        48     9        0.000000        0.388150         3
        18        17        21        48     9      180.000000        0.197015         4
        18        19        20        21     9        0.000000       -0.098875         1
        18        19        20        21     9      180.000000       -0.275991         2
        18        19        20        21     9        0.000000        0.219330         3
        18        19        20        21     9      180.000000       -0.018668         4
        18        19        20        46     9        0.000000       -0.018324         1
        18        19        20        46     9      180.000000       -0.010219         2
        18        19        20        46     9        0.000000        0.119733         3
        18        19        20        46     9      180.000000        0.059477         4
        18        19        20        47     9        0.000000       -0.018324         1
        18        19        20        47     9      180.000000       -0.010219         2
        18        19        20        47     9        0.000000        0.119733         3
        18        19        20        47     9      180.000000        0.059477         4
        18        19        23        24     9        0.000000       -0.772407         1
        18        19        23        24     9      180.000000       13.817704         2
        18        19        23        24     9        0.000000       -1.124658         3
        18        19        23        24     9      180.000000       -0.523087         4
        18        19        23        25     9        0.000000        3.807755         1
        18        19        23        25     9      180.000000       11.423134         2
        18        19        23        25     9        0.000000        0.950522         3
        18        19        23        25     9      180.000000       -0.728722         4
        19        18        17        21     9        0.000000       -2.932575         1
        19        18        17        21     9      180.000000        7.822339         2
        19        18        17        21     9        0.000000       -0.704966         3
        19        18        17        21     9      180.000000       -1.187778         4
        19        18        17        43     9        0.000000        0.949044         1
        19        18        17        43     9      180.000000       -0.377382         2
        19        18        17        43     9        0.000000       -0.056736         3
        19        18        17        43     9      180.000000        0.252566         4
        19        20        21        22     9        0.000000       -0.177640         1
        19        20        21        22     9      180.000000       -1.441189         2
        19        20        21        22     9        0.000000        0.139510         3
        19        20        21        22     9      180.000000        0.103643         4
        19        20        21        48     9        0.000000        0.949044         1
        19        20        21        48     9      180.000000       -0.377382         2
        19        20        21        48     9        0.000000       -0.056736         3
        19        20        21        48     9      180.000000        0.252566         4
        19        23        25        26     9        0.000000       -0.368550         1
        19        23        25        26     9      180.000000        3.799954         2
        19        23        25        26     9        0.000000       -0.343838         3
        19        23        25        26     9      180.000000        0.220400         4
        19        23        25        31     9        0.000000        1.305198         1
        19        23        25        31     9      180.000000        4.080130         2
        19        23        25        31     9        0.000000       -0.555958         3
        19        23        25        31     9      180.000000        0.231955         4
        20        19        18        44     9        0.000000       -0.018324         1
        20        19        18        44     9      180.000000       -0.010219         2
        20        19        18        44     9        0.000000        0.119733         3
        20        19        18        44     9      180.000000        0.059477         4
        20        19        18        45     9        0.000000       -0.018324         1
        20        19        18        45     9      180.000000       -0.010219         2
        20        19        18        45     9        0.000000        0.119733         3
        20        19        18        45     9      180.000000        0.059477         4
        20        19        23        24     9        0.000000       -0.772407         1
        20        19        23        24     9      180.000000       13.817704         2
        20        19        23        24     9        0.000000       -1.124658         3
        20        19        23        24     9      180.000000       -0.523087         4
        20        19        23        25     9        0.000000        3.807756         1
        20        19        23        25     9      180.000000       11.423134         2
        20        19        23        25     9        0.000000        0.950522         3
        20        19        23        25     9      180.000000       -0.728722         4
        20        21        17        43     9        0.000000       -0.022163         1
        20        21        17        43     9      180.000000        0.142975         2
        20        21        17        43     9        0.000000        0.388150         3
        20        21        17        43     9      180.000000        0.197014         4
        20        21        22        49     9        0.000000       -0.150868         1
        20        21        22        49     9      180.000000        0.072012         2
        20        21        22        49     9        0.000000        0.214875         3
        20        21        22        49     9      180.000000        0.045180         4
        20        21        22        50     9        0.000000       -0.150868         1
        20        21        22        50     9      180.000000        0.072012         2
        20        21        22        50     9        0.000000        0.214875         3
        20        21        22        50     9      180.000000        0.045180         4
        21        17        16        41     9        0.000000        0.005454         1
        21        17        16        41     9      180.000000       -0.187956         2
        21        17        16        41     9        0.000000       -0.253494         3
        21        17        16        41     9      180.000000        0.289446         4
        21        17        16        42     9        0.000000        0.005454         1
        21        17        16        42     9      180.000000       -0.187956         2
        21        17        16        42     9        0.000000       -0.253494         3
        21        17        16        42     9      180.000000        0.289446         4
        21        17        18        44     9        0.000000        0.022483         1
        21        17        18        44     9      180.000000       -0.185435         2
        21        17        18        44     9        0.000000       -0.302149         3
        21        17        18        44     9      180.000000        0.229395         4
        21        17        18        45     9        0.000000        0.022483         1
        21        17        18        45     9      180.000000       -0.185435         2
        21        17        18        45     9        0.000000       -0.302149         3
        21        17        18        45     9      180.000000        0.229395         4
        21        20        19        23     9        0.000000       -0.924897         1
        21        20        19        23     9      180.000000       -0.742800         2
        21        20        19        23     9        0.000000        0.102247         3
        21        20        19        23     9      180.000000        0.138445         4
        22        15        16        41     9        0.000000       -0.039860         1
        22        15        16        41     9      180.000000       -0.062664         2
        22        15        16        41     9        0.000000        0.341065         3
        22        15        16        41     9      180.000000        0.107718         4
        22        15        16        42     9        0.000000       -0.039860         1
        22        15        16        42     9      180.000000       -0.062664         2
        22        15        16        42     9        0.000000        0.341065         3
        22        15        16        42     9      180.000000        0.107718         4
        22        21        17        43     9        0.000000        0.196400         1
        22        21        17        43     9      180.000000        0.124289         2
        22        21        17        43     9        0.000000        0.308842         3
        22        21        17        43     9      180.000000        0.285300         4
        22        21        20        46     9        0.000000       -0.090272         1
        22        21        20        46     9      180.000000        0.043313         2
        22        21        20        46     9        0.000000        0.181102         3
        22        21        20        46     9      180.000000        0.056845         4
        22        21        20        47     9        0.000000       -0.090272         1
        22        21        20        47     9      180.000000        0.043313         2
        22        21        20        47     9        0.000000        0.181102         3
        22        21        20        47     9      180.000000        0.056845         4
        23        19        18        44     9        0.000000        0.071282         1
        23        19        18        44     9      180.000000        0.076325         2
        23        19        18        44     9        0.000000        0.084134         3
        23        19        18        44     9      180.000000       -0.022120         4
        23        19        18        45     9        0.000000        0.071282         1
        23        19        18        45     9      180.000000        0.076325         2
        23        19        18        45     9        0.000000        0.084134         3
        23        19        18        45     9      180.000000       -0.022120         4
        23        19        20        46     9        0.000000        0.071281         1
        23        19        20        46     9      180.000000        0.076325         2
        23        19        20        46     9        0.000000        0.084133         3
        23        19        20        46     9      180.000000       -0.022120         4
        23        19        20        47     9        0.000000        0.071281         1
        23        19        20        47     9      180.000000        0.076325         2
        23        19        20        47     9        0.000000        0.084133         3
        23        19        20        47     9      180.000000       -0.022120         4
        23        25        26        27     9        0.000000        0.323763         1
        23        25        26        27     9      180.000000       17.639032         2
        23        25        26        27     9        0.000000        0.671040         3
        23        25        26        27     9      180.000000       -0.965029         4
        23        25        26        28     9        0.000000       -0.042703         1
        23        25        26        28     9      180.000000       12.507043         2
        23        25        26        28     9        0.000000        0.025809         3
        23        25        26        28     9      180.000000       -0.298713         4
        23        25        31        30     9        0.000000       -0.159485         1
        23        25        31        30     9      180.000000       11.728617         2
        23        25        31        30     9        0.000000       -0.307065         3
        23        25        31        30     9      180.000000       -0.206715         4
        23        25        31        32     9        0.000000       -0.058327         1
        23        25        31        32     9      180.000000       16.156170         2
        23        25        31        32     9        0.000000        0.341551         3
        23        25        31        32     9      180.000000       -0.901251         4
        24        23        25        26     9        0.000000       -1.941661         1
        24        23        25        26     9      180.000000        1.094345         2
        24        23        25        26     9        0.000000        0.427875         3
        24        23        25        26     9      180.000000       -0.033087         4
        24        23        25        31     9        0.000000       -5.069445         1
        24        23        25        31     9      180.000000        1.308678         2
        24        23        25        31     9        0.000000        0.034082         3
        24        23        25        31     9      180.000000       -0.013060         4
        25        26        28        29     9        0.000000       -0.230779         1
        25        26        28        29     9      180.000000       17.563440         2
        25        26        28        29     9        0.000000       -1.369842         3
        25        26        28        29     9      180.000000       -0.339553         4
        25        26        28        51     9        0.000000       -0.133924         1
        25        26        28        51     9      180.000000       13.166471         2
        25        26        28        51     9        0.000000       -0.700048         3
        25        26        28        51     9      180.000000        0.076451         4
        25        31        30        29     9        0.000000       -0.224893         1
        25        31        30        29     9      180.000000       17.844404         2
        25        31        30        29     9        0.000000       -1.762319         3
        25        31        30        29     9      180.000000       -0.293758         4
        25        31        30        53     9        0.000000        0.075314         1
        25        31        30        53     9      180.000000       13.789728         2
        25        31        30        53     9        0.000000       -0.664391         3
        25        31        30        53     9      180.000000        0.152451         4
        25        31        32        33     9        0.000000       -0.928394         1
        25        31        32        33     9      180.000000        3.806786         2
        25        31        32        33     9        0.000000        0.016176         3
        25        31        32        33     9      180.000000       -0.052316         4
        25        31        32        36     9        0.000000       -0.928394         1
        25        31        32        36     9      180.000000        3.806786         2
        25        31        32        36     9        0.000000        0.016176         3
        25        31        32        36     9      180.000000       -0.052316         4
        26        25        31        30     9        0.000000       -0.141325         1
        26        25        31        30     9      180.000000       16.126330         2
        26        25        31        30     9        0.000000       -1.429498         3
        26        25        31        30     9      180.000000       -0.178700         4
        26        25        31        32     9        0.000000        0.375259         1
        26        25        31        32     9      180.000000       18.126685         2
        26        25        31        32     9        0.000000        0.186439         3
        26        25        31        32     9      180.000000       -0.681470         4
        26        28        29        30     9        0.000000       -0.152376         1
        26        28        29        30     9      180.000000       18.716155         2
        26        28        29        30     9        0.000000       -1.818926         3
        26        28        29        30     9      180.000000       -0.453549         4
        26        28        29        52     9        0.000000        0.180904         1
        26        28        29        52     9      180.000000       14.902494         2
        26        28        29        52     9        0.000000       -0.731347         3
        26        28        29        52     9      180.000000        0.027321         4
        27        26        25        31     9        0.000000        0.673215         1
        27        26        25        31     9      180.000000       23.238175         2
        27        26        25        31     9        0.000000        0.955630         3
        27        26        25        31     9      180.000000       -1.163490         4
        27        26        28        29     9        0.000000        0.552799         1
        27        26        28        29     9      180.000000       23.768154         2
        27        26        28        29     9        0.000000        0.607966         3
        27        26        28        29     9      180.000000       -0.689433         4
        27        26        28        51     9        0.000000        0.278729         1
        27        26        28        51     9      180.000000       16.994412         2
        27        26        28        51     9        0.000000        0.338076         3
        27        26        28        51     9      180.000000        0.093222         4
        28        26        25        31     9        0.000000        0.135115         1
        28        26        25        31     9      180.000000       15.814504         2
        28        26        25        31     9        0.000000       -0.812439         3
        28        26        25        31     9      180.000000       -0.422734         4
        28        29        30        31     9        0.000000       -0.192714         1
        28        29        30        31     9      180.000000       18.408477         2
        28        29        30        31     9        0.000000       -1.779917         3
        28        29        30        31     9      180.000000       -0.374514         4
        28        29        30        53     9        0.000000        0.142296         1
        28        29        30        53     9      180.000000       15.187281         2
        28        29        30        53     9        0.000000       -0.758856         3
        28        29        30        53     9      180.000000        0.063922         4
        29        30        31        32     9        0.000000        0.358636         1
        29        30        31        32     9      180.000000       18.702792         2
        29        30        31        32     9        0.000000        0.139137         3
        29        30        31        32     9      180.000000       -0.377296         4
        30        29        28        51     9        0.000000        0.246067         1
        30        29        28        51     9      180.000000       14.028888         2
        30        29        28        51     9        0.000000       -0.660950         3
        30        29        28        51     9      180.000000        0.116191         4
        30        31        32        33     9        0.000000        0.756737         1
        30        31        32        33     9      180.000000        3.189609         2
        30        31        32        33     9        0.000000       -0.349349         3
        30        31        32        33     9      180.000000        0.086097         4
        30        31        32        36     9        0.000000        0.756737         1
        30        31        32        36     9      180.000000        3.189609         2
        30        31        32        36     9        0.000000       -0.349349         3
        30        31        32        36     9      180.000000        0.086097         4
        31        30        29        52     9        0.000000        0.014671         1
        31        30        29        52     9      180.000000       14.765855         2
        31        30        29        52     9        0.000000       -0.786746         3
        31        30        29        52     9      180.000000        0.015738         4
        31        32        33        34     9        0.000000        0.775624         1
        31        32        33        34     9      180.000000       14.213466         2
        31        32        33        34     9        0.000000        0.460130         3
        31        32        33        34     9      180.000000       -0.178471         4
        31        32        36        35     9        0.000000        0.775624         1
        31        32        36        35     9      180.000000       14.213466         2
        31        32        36        35     9        0.000000        0.460130         3
        31        32        36        35     9      180.000000       -0.178471         4
        32        31        30        53     9        0.000000        0.319829         1
        32        31        30        53     9      180.000000       14.602053         2
        32        31        30        53     9        0.000000        0.000376         3
        32        31        30        53     9      180.000000        0.144391         4
        32        33        34        35     9        0.000000       -0.095084         1
        32        33        34        35     9      180.000000       41.109451         2
        32        33        34        35     9        0.000000       -5.890198         3
        32        33        34        35     9      180.000000       -0.007891         4
        32        33        34        54     9        0.000000        1.230247         1
        32        33        34        54     9      180.000000       26.477527         2
        32        33        34        54     9        0.000000       -0.131285         3
        32        33        34        54     9      180.000000       -0.123740         4
        32        36        35        34     9        0.000000       -0.095084         1
        32        36        35        34     9      180.000000       41.109451         2
        32        36        35        34     9        0.000000       -5.890198         3
        32        36        35        34     9      180.000000       -0.007891         4
        32        36        35        55     9        0.000000        1.230247         1
        32        36        35        55     9      180.000000       26.477527         2
        32        36        35        55     9        0.000000       -0.131285         3
        32        36        35        55     9      180.000000       -0.123740         4
        33        32        36        35     9        0.000000       -0.214505         1
        33        32        36        35     9      180.000000       33.461258         2
        33        32        36        35     9        0.000000       -5.627567         3
        33        32        36        35     9      180.000000        0.135267         4
        33        34        35        36     9        0.000000       -0.646396         1
        33        34        35        36     9      180.000000       33.879564         2
        33        34        35        36     9        0.000000       -7.997882         3
        33        34        35        36     9      180.000000       -0.068922         4
        33        34        35        55     9        0.000000        0.399471         1
        33        34        35        55     9      180.000000       15.777787         2
        33        34        35        55     9        0.000000       -0.622625         3
        33        34        35        55     9      180.000000       -0.473181         4
        34        33        32        36     9        0.000000       -0.214505         1
        34        33        32        36     9      180.000000       33.461258         2
        34        33        32        36     9        0.000000       -5.627567         3
        34        33        32        36     9      180.000000        0.135267         4
        36        35        34        54     9        0.000000        0.399471         1
        36        35        34        54     9      180.000000       15.777787         2
        36        35        34        54     9        0.000000       -0.622625         3
        36        35        34        54     9      180.000000       -0.473181         4
        41        16        17        43     9        0.000000       -0.140740         1
        41        16        17        43     9      180.000000       -0.009946         2
        41        16        17        43     9        0.000000        0.295617         3
        41        16        17        43     9      180.000000       -0.018107         4
        42        16        17        43     9        0.000000       -0.140740         1
        42        16        17        43     9      180.000000       -0.009946         2
        42        16        17        43     9        0.000000        0.295617         3
        42        16        17        43     9      180.000000       -0.018107         4
        43        17        18        44     9        0.000000       -0.086595         1
        43        17        18        44     9      180.000000        0.026399         2
        43        17        18        44     9        0.000000        0.269152         3
        43        17        18        44     9      180.000000       -0.020189         4
        43        17        18        45     9        0.000000       -0.086595         1
        43        17        18        45     9      180.000000        0.026399         2
        43        17        18        45     9        0.000000        0.269152         3
        43        17        18        45     9      180.000000       -0.020189         4
        43        17        21        48     9        0.000000        0.223574         1
        43        17        21        48     9      180.000000       -0.077956         2
        43        17        21        48     9        0.000000        0.353694         3
        43        17        21        48     9      180.000000       -0.057173         4
        46        20        21        48     9        0.000000       -0.086595         1
        46        20        21        48     9      180.000000        0.026398         2
        46        20        21        48     9        0.000000        0.269152         3
        46        20        21        48     9      180.000000       -0.020189         4
        47        20        21        48     9        0.000000       -0.086595         1
        47        20        21        48     9      180.000000        0.026398         2
        47        20        21        48     9        0.000000        0.269152         3
        47        20        21        48     9      180.000000       -0.020189         4
        48        21        22        49     9        0.000000       -0.140741         1
        48        21        22        49     9      180.000000       -0.009947         2
        48        21        22        49     9        0.000000        0.295617         3
        48        21        22        49     9      180.000000       -0.018107         4
        48        21        22        50     9        0.000000       -0.140741         1
        48        21        22        50     9      180.000000       -0.009947         2
        48        21        22        50     9        0.000000        0.295617         3
        48        21        22        50     9      180.000000       -0.018107         4
        51        28        29        52     9        0.000000       -0.176697         1
        51        28        29        52     9      180.000000       10.882746         2
        51        28        29        52     9        0.000000       -0.527182         3
        51        28        29        52     9      180.000000        0.131688         4
        52        29        30        53     9        0.000000       -0.152787         1
        52        29        30        53     9      180.000000       12.297012         2
        52        29        30        53     9        0.000000       -0.885313         3
        52        29        30        53     9      180.000000        0.289531         4
        54        34        35        55     9        0.000000       -0.304766         1
        54        34        35        55     9      180.000000        8.321253         2
        54        34        35        55     9        0.000000       -0.141498         3
        54        34        35        55     9      180.000000        0.273252         4

[ dihedrals ] ; impropers
;       ai        aj        ak        al funct           phase               k        pn
         6         5         7        40     4      180.000000       15.118578         2
         6         7        40         5     4      180.000000       15.118578         2
         6        40         5         7     4      180.000000       15.118578         2
         8         7         9        15     4      180.000000       27.893333         2
         8         9        15         7     4      180.000000       27.893333         2
         8        15         7         9     4      180.000000       27.893333         2
        10         5         9        11     4      180.000000        5.146864         2
        10         9        11         5     4      180.000000        5.146864         2
        10        11         5         9     4      180.000000        5.146864         2
        28        26        29        51     4      180.000000        0.307014         2
        28        29        51        26     4      180.000000        0.307014         2
        28        51        26        29     4      180.000000        0.307014         2
        29        28        30        52     4      180.000000        2.050246         2
        29        30        52        28     4      180.000000        2.050246         2
        29        52        28        30     4      180.000000        2.050246         2
        30        29        31        53     4      180.000000        0.161180         2
        30        31        53        29     4      180.000000        0.161180         2
        30        53        29        31     4      180.000000        0.161180         2

[ pairs ]
;       ai        aj funct
         1         4     1
         1         5     1
         2         6     1
         2        10     1
         3         7     1
         3         9     1
         3        11     1
         3        37     1
         3        38     1
         3        39     1
         3        40     1
         4         6     1
         4        10     1
         5         8     1
         5        12     1
         5        13     1
         5        14     1
         6         9     1
         6        11     1
         6        15     1
         7        10     1
         7        16     1
         7        22     1
         8        11     1
         8        17     1
         8        21     1
         8        40     1
         8        41     1
         8        42     1
         8        49     1
         8        50     1
         9        12     1
         9        13     1
         9        14     1
         9        16     1
         9        22     1
        10        15     1
        10        40     1
        15        18     1
        15        20     1
        15        43     1
        15        48     1
        16        19     1
        16        20     1
        16        44     1
        16        45     1
        16        48     1
        16        49     1
        16        50     1
        17        23     1
        17        46     1
        17        47     1
        17        49     1
        17        50     1
        18        22     1
        18        24     1
        18        25     1
        18        41     1
        18        42     1
        18        46     1
        18        47     1
        18        48     1
        19        22     1
        19        26     1
        19        31     1
        19        43     1
        19        48     1
        20        24     1
        20        25     1
        20        43     1
        20        44     1
        20        45     1
        20        49     1
        20        50     1
        21        23     1
        21        41     1
        21        42     1
        21        44     1
        21        45     1
        22        41     1
        22        42     1
        22        43     1
        22        46     1
        22        47     1
        23        27     1
        23        28     1
        23        30     1
        23        32     1
        23        44     1
        23        45     1
        23        46     1
        23        47     1
        24        26     1
        24        31     1
        25        29     1
        25        33     1
        25        36     1
        25        51     1
        25        53     1
        26        30     1
        26        32     1
        26        52     1
        27        29     1
        27        31     1
        27        51     1
        28        31     1
        28        53     1
        29        32     1
        30        33     1
        30        36     1
        30        51     1
        31        34     1
        31        35     1
        31        52     1
        32        53     1
        32        54     1
        32        55     1
        33        55     1
        36        54     1
        41        43     1
        42        43     1
        43        44     1
        43        45     1
        43        48     1
        46        48     1
        47        48     1
        48        49     1
        48        50     1
        51        52     1
        52        53     1
        54        55     1
