; ITP file created by ByteFF-ML, 2025-12-06 04:42:07.337427

[ atomtypes ]
;name           bonded.type        at.num        mass        charge   ptype           sigma         epsilon
 c0bf                                   6      0.0000       0.00000       A     3.39778e-01     4.49916e-01
 o1bf                                   8      0.0000       0.00000       A     3.15890e-01     3.04225e-01
 c2bf                                   6      0.0000       0.00000       A     3.31327e-01     4.13028e-01
 c3bf                                   6      0.0000       0.00000       A     3.31571e-01     4.12705e-01
 c4bf                                   6      0.0000       0.00000       A     3.31465e-01     4.12220e-01
 c5bf                                   6      0.0000       0.00000       A     3.31527e-01     4.11053e-01
 c6bf                                   6      0.0000       0.00000       A     3.31356e-01     4.10365e-01
 o7bf                                   8      0.0000       0.00000       A     3.04770e-01     6.12733e-01
 n8bf                                   7      0.0000       0.00000       A     3.18141e-01     6.81151e-01
 c9bf                                   6      0.0000       0.00000       A     3.39727e-01     4.50795e-01
 c10bf                                  6      0.0000       0.00000       A     3.39712e-01     4.49806e-01
 c11bf                                  6      0.0000       0.00000       A     3.39585e-01     4.49212e-01
 n12bf                                  7      0.0000       0.00000       A     3.19428e-01     8.94136e-01
 c13bf                                  6      0.0000       0.00000       A     3.39585e-01     4.49212e-01
 c14bf                                  6      0.0000       0.00000       A     3.39712e-01     4.49806e-01
 c15bf                                  6      0.0000       0.00000       A     3.39727e-01     4.50797e-01
 c16bf                                  6      0.0000       0.00000       A     3.31548e-01     4.12659e-01
 n17bf                                  7      0.0000       0.00000       A     3.38255e-01     3.94373e-01
 c18bf                                  6      0.0000       0.00000       A     3.31356e-01     4.11183e-01
 c19bf                                  6      0.0000       0.00000       A     3.39813e-01     4.50976e-01
 c20bf                                  6      0.0000       0.00000       A     3.31508e-01     4.12834e-01
 c21bf                                  6      0.0000       0.00000       A     3.31356e-01     4.11183e-01
 c22bf                                  6      0.0000       0.00000       A     3.39813e-01     4.50976e-01
 n23bf                                  7      0.0000       0.00000       A     3.38255e-01     3.94373e-01
 c24bf                                  6      0.0000       0.00000       A     3.31500e-01     4.14925e-01
 c25bf                                  6      0.0000       0.00000       A     3.31537e-01     4.11649e-01
 n26bf                                  7      0.0000       0.00000       A     3.20896e-01     8.50659e-01
 n27bf                                  7      0.0000       0.00000       A     3.38251e-01     3.94826e-01
 c28bf                                  6      0.0000       0.00000       A     3.31301e-01     4.12308e-01
 c29bf                                  6      0.0000       0.00000       A     3.31301e-01     4.12308e-01
 n30bf                                  7      0.0000       0.00000       A     3.38251e-01     3.94826e-01
 h31bf                                  1      0.0000       0.00000       A     2.42080e-01     8.75859e-02
 h32bf                                  1      0.0000       0.00000       A     2.42080e-01     8.75859e-02
 h33bf                                  1      0.0000       0.00000       A     2.42080e-01     8.75859e-02
 h34bf                                  1      0.0000       0.00000       A     2.62479e-01     6.70589e-02
 h35bf                                  1      0.0000       0.00000       A     2.62545e-01     6.73653e-02
 h36bf                                  1      0.0000       0.00000       A     2.42171e-01     8.72571e-02
 h37bf                                  1      0.0000       0.00000       A     2.42171e-01     8.72571e-02
 h38bf                                  1      0.0000       0.00000       A     2.60149e-01     8.67575e-02
 h39bf                                  1      0.0000       0.00000       A     2.42127e-01     8.72842e-02
 h40bf                                  1      0.0000       0.00000       A     2.42127e-01     8.72842e-02
 h41bf                                  1      0.0000       0.00000       A     2.42127e-01     8.72842e-02
 h42bf                                  1      0.0000       0.00000       A     2.42127e-01     8.72842e-02
 h43bf                                  1      0.0000       0.00000       A     2.60149e-01     8.67575e-02
 h44bf                                  1      0.0000       0.00000       A     2.42171e-01     8.72571e-02
 h45bf                                  1      0.0000       0.00000       A     2.42171e-01     8.72571e-02
 h46bf                                  1      0.0000       0.00000       A     2.59989e-01     8.71151e-02
 h47bf                                  1      0.0000       0.00000       A     2.59989e-01     8.71151e-02
 h48bf                                  1      0.0000       0.00000       A     2.59989e-01     8.71151e-02
 h49bf                                  1      0.0000       0.00000       A     2.62556e-01     6.77132e-02
 h50bf                                  1      0.0000       0.00000       A     2.59989e-01     8.71151e-02
 h51bf                                  1      0.0000       0.00000       A     2.59989e-01     8.71151e-02
 h52bf                                  1      0.0000       0.00000       A     2.59989e-01     8.71151e-02
 h53bf                                  1      0.0000       0.00000       A     2.62534e-01     6.76510e-02
 h54bf                                  1      0.0000       0.00000       A     2.53897e-01     6.74946e-02
 h55bf                                  1      0.0000       0.00000       A     2.53897e-01     6.74946e-02

[ moleculetype ]
;name             nrexcl
 set_2_5_adjust        3

[ atoms ]
;       nr            type      resi   res      atom      cgnr      charge          mass ; qtot
         1            c0bf         1   UNL        c0         1     0.14342       12.0110 ; qtot    0.143
         2            o1bf         1   UNL        o1         2    -0.34354       15.9990 ; qtot   -0.200
         3            c2bf         1   UNL        c2         3     0.15282       12.0110 ; qtot   -0.047
         4            c3bf         1   UNL        c3         4    -0.17801       12.0110 ; qtot   -0.225
         5            c4bf         1   UNL        c4         5    -0.03229       12.0110 ; qtot   -0.258
         6            c5bf         1   UNL        c5         6    -0.14695       12.0110 ; qtot   -0.405
         7            c6bf         1   UNL        c6         7     0.63164       12.0110 ; qtot    0.227
         8            o7bf         1   UNL        o7         8    -0.59049       15.9990 ; qtot   -0.363
         9            n8bf         1   UNL        n8         9    -0.41105       14.0070 ; qtot   -0.774
        10            c9bf         1   UNL        c9        10     0.10928       12.0110 ; qtot   -0.665
        11           c10bf         1   UNL       c10        11    -0.10223       12.0110 ; qtot   -0.767
        12           c11bf         1   UNL       c11        12     0.23669       12.0110 ; qtot   -0.531
        13           n12bf         1   UNL       n12        13    -0.78178       14.0070 ; qtot   -1.312
        14           c13bf         1   UNL       c13        14     0.23669       12.0110 ; qtot   -1.076
        15           c14bf         1   UNL       c14        15    -0.10223       12.0110 ; qtot   -1.178
        16           c15bf         1   UNL       c15        16     0.10928       12.0110 ; qtot   -1.069
        17           c16bf         1   UNL       c16        17     0.38591       12.0110 ; qtot   -0.683
        18           n17bf         1   UNL       n17        18    -0.25087       14.0070 ; qtot   -0.934
        19           c18bf         1   UNL       c18        19     0.16283       12.0110 ; qtot   -0.771
        20           c19bf         1   UNL       c19        20    -0.15050       12.0110 ; qtot   -0.921
        21           c20bf         1   UNL       c20        21    -0.27614       12.0110 ; qtot   -1.198
        22           c21bf         1   UNL       c21        22     0.16283       12.0110 ; qtot   -1.035
        23           c22bf         1   UNL       c22        23    -0.15050       12.0110 ; qtot   -1.185
        24           n23bf         1   UNL       n23        24    -0.25087       14.0070 ; qtot   -1.436
        25           c24bf         1   UNL       c24        25     0.09025       12.0110 ; qtot   -1.346
        26           c25bf         1   UNL       c25        26    -0.15249       12.0110 ; qtot   -1.498
        27           n26bf         1   UNL       n26        27     0.30874       14.0070 ; qtot   -1.190
        28           n27bf         1   UNL       n27        28    -0.47972       14.0070 ; qtot   -1.669
        29           c28bf         1   UNL       c28        29     0.20629       12.0110 ; qtot   -1.463
        30           c29bf         1   UNL       c29        30     0.20629       12.0110 ; qtot   -1.257
        31           n30bf         1   UNL       n30        31    -0.47972       14.0070 ; qtot   -1.736
        32           h31bf         1   UNL       h31        32     0.04277        1.0080 ; qtot   -1.694
        33           h32bf         1   UNL       h32        33     0.04277        1.0080 ; qtot   -1.651
        34           h33bf         1   UNL       h33        34     0.04277        1.0080 ; qtot   -1.608
        35           h34bf         1   UNL       h34        35     0.12931        1.0080 ; qtot   -1.479
        36           h35bf         1   UNL       h35        36     0.12734        1.0080 ; qtot   -1.351
        37           h36bf         1   UNL       h36        37     0.06015        1.0080 ; qtot   -1.291
        38           h37bf         1   UNL       h37        38     0.06015        1.0080 ; qtot   -1.231
        39           h38bf         1   UNL       h38        39     0.07208        1.0080 ; qtot   -1.159
        40           h39bf         1   UNL       h39        40     0.05798        1.0080 ; qtot   -1.101
        41           h40bf         1   UNL       h40        41     0.05798        1.0080 ; qtot   -1.043
        42           h41bf         1   UNL       h41        42     0.05798        1.0080 ; qtot   -0.985
        43           h42bf         1   UNL       h42        43     0.05798        1.0080 ; qtot   -0.927
        44           h43bf         1   UNL       h43        44     0.07208        1.0080 ; qtot   -0.855
        45           h44bf         1   UNL       h44        45     0.06015        1.0080 ; qtot   -0.795
        46           h45bf         1   UNL       h45        46     0.06015        1.0080 ; qtot   -0.735
        47           h46bf         1   UNL       h46        47     0.05717        1.0080 ; qtot   -0.678
        48           h47bf         1   UNL       h47        48     0.05717        1.0080 ; qtot   -0.620
        49           h48bf         1   UNL       h48        49     0.05717        1.0080 ; qtot   -0.563
        50           h49bf         1   UNL       h49        50     0.13105        1.0080 ; qtot   -0.432
        51           h50bf         1   UNL       h50        51     0.05717        1.0080 ; qtot   -0.375
        52           h51bf         1   UNL       h51        52     0.05717        1.0080 ; qtot   -0.318
        53           h52bf         1   UNL       h52        53     0.05717        1.0080 ; qtot   -0.261
        54           h53bf         1   UNL       h53        54     0.14819        1.0080 ; qtot   -0.113
        55           h54bf         1   UNL       h54        55     0.05626        1.0080 ; qtot   -0.056
        56           h55bf         1   UNL       h55        56     0.05626        1.0080 ; qtot    0.000

[ bonds ]
;       ai        aj funct               r               k
         1         2     1        0.142510   208161.073779
         1        32     1        0.109438   297412.683691
         1        33     1        0.109438   297412.683691
         1        34     1        0.109438   297412.683691
         2         3     1        0.136530   274656.539990
         3         4     1        0.140429   285468.185986
         3        26     1        0.140064   292511.065381
         4         5     1        0.139362   323980.879395
         4        35     1        0.108392   324442.590332
         5         6     1        0.140203   293276.284863
         5        36     1        0.108526   321487.027441
         6         7     1        0.151047   179502.895508
         6        25     1        0.140456   274985.483496
         7         8     1        0.123425   589803.648047
         7         9     1        0.136001   308789.287158
         9        10     1        0.147342   175956.876343
         9        16     1        0.147342   175956.876343
        10        11     1        0.153427   175080.787500
        10        37     1        0.109385   298254.744336
        10        38     1        0.109385   298254.744336
        11        12     1        0.153334   175036.020947
        11        15     1        0.154277   149842.117554
        11        39     1        0.109325   303915.912891
        12        13     1        0.146885   181060.582568
        12        40     1        0.109481   294444.837451
        12        41     1        0.109481   294444.837451
        13        14     1        0.146885   181060.557031
        13        17     1        0.136150   322423.090186
        14        15     1        0.153334   175036.020947
        14        42     1        0.109481   294444.837451
        14        43     1        0.109481   294444.786377
        15        16     1        0.153427   175080.787500
        15        44     1        0.109325   303915.912891
        16        45     1        0.109385   298254.744336
        16        46     1        0.109385   298254.744336
        17        18     1        0.135061   255154.819971
        17        24     1        0.135061   255154.794434
        18        19     1        0.133745   333057.585254
        19        20     1        0.150694   207469.771460
        19        21     1        0.140051   285005.530176
        20        47     1        0.109354   305309.983691
        20        48     1        0.109354   305309.983691
        20        49     1        0.109354   305309.983691
        21        22     1        0.140051   285005.530176
        21        50     1        0.108514   321723.577686
        22        23     1        0.150694   207469.733154
        22        24     1        0.133745   333057.585254
        23        51     1        0.109354   305309.958154
        23        52     1        0.109354   305309.958154
        23        53     1        0.109354   305309.958154
        25        26     1        0.139798   298403.932129
        25        27     1        0.142449   228011.196582
        26        54     1        0.108230   328674.497949
        27        28     1        0.134041   245356.716309
        27        31     1        0.134041   245356.716309
        28        29     1        0.133423   350873.549609
        29        30     1        0.141148   279463.543311
        29        55     1        0.108128   339085.415625
        30        31     1        0.133423   350873.498535
        30        56     1        0.108128   339085.415625

[ angles ]
;       ai        aj        ak funct           theta             cth
         1         2         3     1      117.989426      558.866423
         2         1        32     1      109.521790      448.665241
         2         1        33     1      109.521790      448.665241
         2         1        34     1      109.521790      448.665241
         2         3         4     1      121.043320      563.269723
         2         3        26     1      118.508804      526.542444
         3         4         5     1      119.354370      754.357401
         3         4        35     1      120.362389      441.234166
         3        26        25     1      119.807373      741.128923
         3        26        54     1      120.816872      422.284130
         4         3        26     1      119.534164      625.568906
         4         5         6     1      121.801414      687.729039
         4         5        36     1      119.474854      405.742755
         5         4        35     1      120.419510      424.827499
         5         6         7     1      118.529808      548.606762
         5         6        25     1      117.443649      689.679500
         6         5        36     1      118.556595      382.201052
         6         7         8     1      120.137650      511.294619
         6         7         9     1      117.011459      441.758187
         6        25        26     1      121.245987      632.589951
         6        25        27     1      120.639748      462.262699
         7         6        25     1      123.888794      540.521011
         7         9        10     1      123.340477      462.896881
         7         9        16     1      123.340477      462.896881
         8         7         9     1      122.660179      633.261705
         9        10        11     1      103.395767      529.540756
         9        10        37     1      110.442825      438.278692
         9        10        38     1      110.442825      438.278692
         9        16        15     1      103.395767      529.540756
         9        16        45     1      110.442825      438.278692
         9        16        46     1      110.442825      438.278692
        10         9        16     1      111.329147      405.322861
        10        11        12     1      115.967918      490.766039
        10        11        15     1      103.849319      536.391532
        10        11        39     1      110.495773      465.529246
        11        10        37     1      112.216675      453.127053
        11        10        38     1      112.216675      453.127053
        11        12        13     1      102.892921      518.507927
        11        12        40     1      112.134521      456.886371
        11        12        41     1      112.134521      456.886371
        11        15        14     1      103.531944      553.400524
        11        15        16     1      103.849319      536.391532
        11        15        44     1      111.068626      475.836438
        12        11        15     1      103.531944      553.400524
        12        11        39     1      110.411415      471.837167
        12        13        14     1      113.053551      339.130578
        12        13        17     1      122.793289      492.092788
        13        12        40     1      110.665466      411.334967
        13        12        41     1      110.665466      411.334967
        13        14        15     1      102.892921      518.507959
        13        14        42     1      110.665466      411.334999
        13        14        43     1      110.665466      411.334967
        13        17        18     1      116.861961      541.920827
        13        17        24     1      116.861961      541.920827
        14        13        17     1      122.793289      492.092788
        14        15        16     1      115.967918      490.766103
        14        15        44     1      110.411415      471.837167
        15        11        39     1      111.068642      475.836438
        15        14        42     1      112.134521      456.886371
        15        14        43     1      112.134521      456.886371
        15        16        45     1      112.216675      453.127085
        15        16        46     1      112.216675      453.127085
        16        15        44     1      110.495773      465.529246
        17        18        19     1      116.614647      960.079055
        17        24        22     1      116.614647      960.079055
        18        17        24     1      126.191666      604.351846
        18        19        20     1      116.354942      475.838162
        18        19        21     1      121.655540      736.540223
        19        20        47     1      110.547607      500.572608
        19        20        48     1      110.547607      500.572608
        19        20        49     1      110.547607      500.572608
        19        21        22     1      117.478683      761.775676
        19        21        50     1      121.294067      418.995525
        20        19        21     1      122.040428      489.957215
        21        22        23     1      122.040443      489.957215
        21        22        24     1      121.655540      736.540223
        22        21        50     1      121.294067      418.995525
        22        23        51     1      110.547607      500.572608
        22        23        52     1      110.547607      500.572608
        22        23        53     1      110.547607      500.572608
        23        22        24     1      116.354942      475.838226
        25        26        54     1      119.160843      414.988561
        25        27        28     1      122.141586      519.166018
        25        27        31     1      122.141586      519.165954
        26        25        27     1      117.493530      508.430058
        27        28        29     1      103.754623      480.969589
        27        31        30     1      103.754623      480.969557
        28        27        31     1      115.032143      216.324598
        28        29        30     1      108.709312      295.765725
        28        29        55     1      120.742882      391.074016
        29        30        31     1      108.709312      295.765661
        29        30        56     1      130.286758      343.611766
        30        29        55     1      130.286758      343.611766
        31        30        56     1      120.742882      391.074016
        32         1        33     1      109.477661      342.882171
        32         1        34     1      109.477661      342.882171
        33         1        34     1      109.477646      342.882171
        37        10        38     1      107.816490      348.007916
        40        12        41     1      107.788414      347.454303
        42        14        43     1      107.788414      347.454335
        45        16        46     1      107.816490      348.007916
        47        20        48     1      108.389893      359.969498
        47        20        49     1      108.389893      359.969498
        48        20        49     1      108.389893      359.969498
        51        23        52     1      108.389893      359.969466
        51        23        53     1      108.389893      359.969466
        52        23        53     1      108.389893      359.969498

[ dihedrals ] ; propers for gromacs 4.5 or higher, use funct 9
;       ai        aj        ak        al funct           phase               k        pn
         1         2         3         4     9        0.000000        0.376054         1
         1         2         3         4     9      180.000000        6.262193         2
         1         2         3         4     9        0.000000        0.144990         3
         1         2         3         4     9      180.000000        0.645446         4
         1         2         3        26     9        0.000000       -0.686678         1
         1         2         3        26     9      180.000000        5.968463         2
         1         2         3        26     9        0.000000       -0.265628         3
         1         2         3        26     9      180.000000        0.741052         4
         2         3         4         5     9        0.000000        0.567519         1
         2         3         4         5     9      180.000000       16.990529         2
         2         3         4         5     9        0.000000        0.292973         3
         2         3         4         5     9      180.000000       -0.368188         4
         2         3         4        35     9        0.000000        0.051790         1
         2         3         4        35     9      180.000000       12.610254         2
         2         3         4        35     9        0.000000       -0.180581         3
         2         3         4        35     9      180.000000        0.289134         4
         2         3        26        25     9        0.000000        0.259830         1
         2         3        26        25     9      180.000000       17.231033         2
         2         3        26        25     9        0.000000        0.239316         3
         2         3        26        25     9      180.000000       -0.368477         4
         2         3        26        54     9        0.000000        0.126391         1
         2         3        26        54     9      180.000000       13.089919         2
         2         3        26        54     9        0.000000       -0.119116         3
         2         3        26        54     9      180.000000        0.325179         4
         3         2         1        32     9        0.000000       -0.098107         1
         3         2         1        32     9      180.000000        0.044508         2
         3         2         1        32     9        0.000000        0.663797         3
         3         2         1        32     9      180.000000       -0.025194         4
         3         2         1        33     9        0.000000       -0.098107         1
         3         2         1        33     9      180.000000        0.044508         2
         3         2         1        33     9        0.000000        0.663797         3
         3         2         1        33     9      180.000000       -0.025194         4
         3         2         1        34     9        0.000000       -0.098107         1
         3         2         1        34     9      180.000000        0.044508         2
         3         2         1        34     9        0.000000        0.663797         3
         3         2         1        34     9      180.000000       -0.025194         4
         3         4         5         6     9        0.000000       -0.181221         1
         3         4         5         6     9      180.000000       18.678614         2
         3         4         5         6     9        0.000000       -1.784709         3
         3         4         5         6     9      180.000000       -0.533214         4
         3         4         5        36     9        0.000000        0.145806         1
         3         4         5        36     9      180.000000       15.224471         2
         3         4         5        36     9        0.000000       -0.423155         3
         3         4         5        36     9      180.000000        0.051765         4
         3        26        25         6     9        0.000000       -0.347496         1
         3        26        25         6     9      180.000000       17.159252         2
         3        26        25         6     9        0.000000       -1.708003         3
         3        26        25         6     9      180.000000       -0.296367         4
         3        26        25        27     9        0.000000        0.286908         1
         3        26        25        27     9      180.000000       18.750140         2
         3        26        25        27     9        0.000000        0.281879         3
         3        26        25        27     9      180.000000       -0.542317         4
         4         3        26        25     9        0.000000       -0.102158         1
         4         3        26        25     9      180.000000       15.763180         2
         4         3        26        25     9        0.000000       -0.937069         3
         4         3        26        25     9      180.000000       -0.296314         4
         4         3        26        54     9        0.000000        0.265182         1
         4         3        26        54     9      180.000000       12.244393         2
         4         3        26        54     9        0.000000       -0.472630         3
         4         3        26        54     9      180.000000        0.218356         4
         4         5         6         7     9        0.000000       -0.125500         1
         4         5         6         7     9      180.000000       14.947335         2
         4         5         6         7     9        0.000000       -0.310699         3
         4         5         6         7     9      180.000000       -0.362651         4
         4         5         6        25     9        0.000000       -0.144260         1
         4         5         6        25     9      180.000000       18.287884         2
         4         5         6        25     9        0.000000       -1.504619         3
         4         5         6        25     9      180.000000       -0.524711         4
         5         4         3        26     9        0.000000       -0.121499         1
         5         4         3        26     9      180.000000       15.035982         2
         5         4         3        26     9        0.000000       -0.989051         3
         5         4         3        26     9      180.000000       -0.226063         4
         5         6         7         8     9        0.000000        1.401692         1
         5         6         7         8     9      180.000000        1.818263         2
         5         6         7         8     9        0.000000        0.514129         3
         5         6         7         8     9      180.000000        0.053918         4
         5         6         7         9     9        0.000000        1.696428         1
         5         6         7         9     9      180.000000        4.127422         2
         5         6         7         9     9        0.000000        0.214623         3
         5         6         7         9     9      180.000000        0.057533         4
         5         6        25        26     9        0.000000       -0.063629         1
         5         6        25        26     9      180.000000       15.725307         2
         5         6        25        26     9        0.000000       -1.361912         3
         5         6        25        26     9      180.000000       -0.264832         4
         5         6        25        27     9        0.000000        0.244204         1
         5         6        25        27     9      180.000000       16.988748         2
         5         6        25        27     9        0.000000        0.057581         3
         5         6        25        27     9      180.000000       -0.590911         4
         6         5         4        35     9        0.000000        0.100796         1
         6         5         4        35     9      180.000000       15.041527         2
         6         5         4        35     9        0.000000       -0.698306         3
         6         5         4        35     9      180.000000       -0.009098         4
         6         7         9        10     9        0.000000        5.594235         1
         6         7         9        10     9      180.000000       11.473575         2
         6         7         9        10     9        0.000000        1.579958         3
         6         7         9        10     9      180.000000       -0.447040         4
         6         7         9        16     9        0.000000        5.594236         1
         6         7         9        16     9      180.000000       11.473574         2
         6         7         9        16     9        0.000000        1.579958         3
         6         7         9        16     9      180.000000       -0.447041         4
         6        25        26        54     9        0.000000        0.270231         1
         6        25        26        54     9      180.000000       13.119008         2
         6        25        26        54     9        0.000000       -0.647855         3
         6        25        26        54     9      180.000000        0.213228         4
         6        25        27        28     9        0.000000       -0.546067         1
         6        25        27        28     9      180.000000        3.554354         2
         6        25        27        28     9        0.000000        0.219355         3
         6        25        27        28     9      180.000000       -0.129019         4
         6        25        27        31     9        0.000000       -0.546067         1
         6        25        27        31     9      180.000000        3.554353         2
         6        25        27        31     9        0.000000        0.219355         3
         6        25        27        31     9      180.000000       -0.129019         4
         7         6         5        36     9        0.000000       -0.043835         1
         7         6         5        36     9      180.000000       12.444070         2
         7         6         5        36     9        0.000000       -0.386240         3
         7         6         5        36     9      180.000000        0.106568         4
         7         6        25        26     9        0.000000       -0.565995         1
         7         6        25        26     9      180.000000       10.844439         2
         7         6        25        26     9        0.000000       -0.538211         3
         7         6        25        26     9      180.000000       -0.244628         4
         7         6        25        27     9        0.000000        0.026729         1
         7         6        25        27     9      180.000000       15.148642         2
         7         6        25        27     9        0.000000        0.503981         3
         7         6        25        27     9      180.000000       -0.864526         4
         7         9        10        11     9        0.000000       -1.003417         1
         7         9        10        11     9      180.000000       -0.740189         2
         7         9        10        11     9        0.000000        0.087815         3
         7         9        10        11     9      180.000000        0.171319         4
         7         9        10        37     9        0.000000        0.041871         1
         7         9        10        37     9      180.000000        0.087100         2
         7         9        10        37     9        0.000000        0.094211         3
         7         9        10        37     9      180.000000       -0.011430         4
         7         9        10        38     9        0.000000        0.041871         1
         7         9        10        38     9      180.000000        0.087100         2
         7         9        10        38     9        0.000000        0.094211         3
         7         9        10        38     9      180.000000       -0.011430         4
         7         9        16        15     9        0.000000       -1.003418         1
         7         9        16        15     9      180.000000       -0.740189         2
         7         9        16        15     9        0.000000        0.087816         3
         7         9        16        15     9      180.000000        0.171319         4
         7         9        16        45     9        0.000000        0.041871         1
         7         9        16        45     9      180.000000        0.087101         2
         7         9        16        45     9        0.000000        0.094211         3
         7         9        16        45     9      180.000000       -0.011430         4
         7         9        16        46     9        0.000000        0.041871         1
         7         9        16        46     9      180.000000        0.087101         2
         7         9        16        46     9        0.000000        0.094211         3
         7         9        16        46     9      180.000000       -0.011430         4
         8         7         6        25     9        0.000000       -7.611583         1
         8         7         6        25     9      180.000000        1.851505         2
         8         7         6        25     9        0.000000        0.065423         3
         8         7         6        25     9      180.000000       -0.083412         4
         8         7         9        10     9        0.000000       -1.692530         1
         8         7         9        10     9      180.000000       13.640633         2
         8         7         9        10     9        0.000000       -1.078417         3
         8         7         9        10     9      180.000000       -0.220068         4
         8         7         9        16     9        0.000000       -1.692530         1
         8         7         9        16     9      180.000000       13.640631         2
         8         7         9        16     9        0.000000       -1.078417         3
         8         7         9        16     9      180.000000       -0.220067         4
         9         7         6        25     9        0.000000       -0.596865         1
         9         7         6        25     9      180.000000        4.269488         2
         9         7         6        25     9        0.000000       -0.770356         3
         9         7         6        25     9      180.000000        0.146283         4
         9        10        11        12     9        0.000000       -0.410988         1
         9        10        11        12     9      180.000000       -1.385797         2
         9        10        11        12     9        0.000000        0.136984         3
         9        10        11        12     9      180.000000        0.093039         4
         9        10        11        15     9        0.000000       -2.854018         1
         9        10        11        15     9      180.000000        7.702165         2
         9        10        11        15     9        0.000000       -0.708712         3
         9        10        11        15     9      180.000000       -1.169470         4
         9        10        11        39     9        0.000000        0.989397         1
         9        10        11        39     9      180.000000       -0.387239         2
         9        10        11        39     9        0.000000       -0.055241         3
         9        10        11        39     9      180.000000        0.255011         4
         9        16        15        11     9        0.000000       -2.854020         1
         9        16        15        11     9      180.000000        7.702167         2
         9        16        15        11     9        0.000000       -0.708711         3
         9        16        15        11     9      180.000000       -1.169471         4
         9        16        15        14     9        0.000000       -0.410988         1
         9        16        15        14     9      180.000000       -1.385796         2
         9        16        15        14     9        0.000000        0.136984         3
         9        16        15        14     9      180.000000        0.093039         4
         9        16        15        44     9        0.000000        0.989396         1
         9        16        15        44     9      180.000000       -0.387239         2
         9        16        15        44     9        0.000000       -0.055241         3
         9        16        15        44     9      180.000000        0.255011         4
        10         9        16        15     9        0.000000       -0.115320         1
        10         9        16        15     9      180.000000       -0.195851         2
        10         9        16        15     9        0.000000        0.225772         3
        10         9        16        15     9      180.000000       -0.049084         4
        10         9        16        45     9        0.000000       -0.036131         1
        10         9        16        45     9      180.000000       -0.000356         2
        10         9        16        45     9        0.000000        0.119649         3
        10         9        16        45     9      180.000000        0.062908         4
        10         9        16        46     9        0.000000       -0.036131         1
        10         9        16        46     9      180.000000       -0.000356         2
        10         9        16        46     9        0.000000        0.119649         3
        10         9        16        46     9      180.000000        0.062908         4
        10        11        12        13     9        0.000000        0.141092         1
        10        11        12        13     9      180.000000       -1.554592         2
        10        11        12        13     9        0.000000        0.129276         3
        10        11        12        13     9      180.000000        0.187853         4
        10        11        12        40     9        0.000000       -0.150867         1
        10        11        12        40     9      180.000000        0.072012         2
        10        11        12        40     9        0.000000        0.214875         3
        10        11        12        40     9      180.000000        0.045179         4
        10        11        12        41     9        0.000000       -0.150867         1
        10        11        12        41     9      180.000000        0.072012         2
        10        11        12        41     9        0.000000        0.214875         3
        10        11        12        41     9      180.000000        0.045179         4
        10        11        15        14     9        0.000000       -1.429697         1
        10        11        15        14     9      180.000000       -0.955406         2
        10        11        15        14     9        0.000000        0.546147         3
        10        11        15        14     9      180.000000       -0.724521         4
        10        11        15        16     9        0.000000       -0.903493         1
        10        11        15        16     9      180.000000       -0.930897         2
        10        11        15        16     9        0.000000        0.568821         3
        10        11        15        16     9      180.000000       -0.686259         4
        10        11        15        44     9        0.000000       -0.022164         1
        10        11        15        44     9      180.000000        0.142976         2
        10        11        15        44     9        0.000000        0.388150         3
        10        11        15        44     9      180.000000        0.197014         4
        11        10         9        16     9        0.000000       -0.115320         1
        11        10         9        16     9      180.000000       -0.195851         2
        11        10         9        16     9        0.000000        0.225772         3
        11        10         9        16     9      180.000000       -0.049084         4
        11        12        13        14     9        0.000000       -0.515519         1
        11        12        13        14     9      180.000000        0.695786         2
        11        12        13        14     9        0.000000        0.374724         3
        11        12        13        14     9      180.000000       -0.306280         4
        11        12        13        17     9        0.000000       -3.777482         1
        11        12        13        17     9      180.000000       -0.445032         2
        11        12        13        17     9        0.000000        0.410580         3
        11        12        13        17     9      180.000000        0.178916         4
        11        15        14        13     9        0.000000       -3.183876         1
        11        15        14        13     9      180.000000       11.770774         2
        11        15        14        13     9        0.000000       -0.669596         3
        11        15        14        13     9      180.000000       -2.371237         4
        11        15        14        42     9        0.000000        0.005453         1
        11        15        14        42     9      180.000000       -0.187956         2
        11        15        14        42     9        0.000000       -0.253494         3
        11        15        14        42     9      180.000000        0.289445         4
        11        15        14        43     9        0.000000        0.005453         1
        11        15        14        43     9      180.000000       -0.187956         2
        11        15        14        43     9        0.000000       -0.253494         3
        11        15        14        43     9      180.000000        0.289446         4
        11        15        16        45     9        0.000000        0.022483         1
        11        15        16        45     9      180.000000       -0.185435         2
        11        15        16        45     9        0.000000       -0.302149         3
        11        15        16        45     9      180.000000        0.229395         4
        11        15        16        46     9        0.000000        0.022483         1
        11        15        16        46     9      180.000000       -0.185435         2
        11        15        16        46     9        0.000000       -0.302149         3
        11        15        16        46     9      180.000000        0.229395         4
        12        11        10        37     9        0.000000       -0.090271         1
        12        11        10        37     9      180.000000        0.043314         2
        12        11        10        37     9        0.000000        0.181102         3
        12        11        10        37     9      180.000000        0.056845         4
        12        11        10        38     9        0.000000       -0.090271         1
        12        11        10        38     9      180.000000        0.043314         2
        12        11        10        38     9        0.000000        0.181102         3
        12        11        10        38     9      180.000000        0.056845         4
        12        11        15        14     9        0.000000       -1.723215         1
        12        11        15        14     9      180.000000       -1.104300         2
        12        11        15        14     9        0.000000        0.465854         3
        12        11        15        14     9      180.000000       -0.749204         4
        12        11        15        16     9        0.000000       -1.429696         1
        12        11        15        16     9      180.000000       -0.955407         2
        12        11        15        16     9        0.000000        0.546147         3
        12        11        15        16     9      180.000000       -0.724520         4
        12        11        15        44     9        0.000000        0.196399         1
        12        11        15        44     9      180.000000        0.124290         2
        12        11        15        44     9        0.000000        0.308842         3
        12        11        15        44     9      180.000000        0.285300         4
        12        13        14        15     9        0.000000       -0.515520         1
        12        13        14        15     9      180.000000        0.695785         2
        12        13        14        15     9        0.000000        0.374724         3
        12        13        14        15     9      180.000000       -0.306280         4
        12        13        14        42     9        0.000000       -0.040239         1
        12        13        14        42     9      180.000000       -0.063462         2
        12        13        14        42     9        0.000000        0.343610         3
        12        13        14        42     9      180.000000        0.107466         4
        12        13        14        43     9        0.000000       -0.040239         1
        12        13        14        43     9      180.000000       -0.063463         2
        12        13        14        43     9        0.000000        0.343610         3
        12        13        14        43     9      180.000000        0.107466         4
        12        13        17        18     9        0.000000        0.747628         1
        12        13        17        18     9      180.000000        9.366863         2
        12        13        17        18     9        0.000000       -0.095722         3
        12        13        17        18     9      180.000000       -1.018207         4
        12        13        17        24     9        0.000000        0.747628         1
        12        13        17        24     9      180.000000        9.366864         2
        12        13        17        24     9        0.000000       -0.095723         3
        12        13        17        24     9      180.000000       -1.018206         4
        13        12        11        15     9        0.000000       -3.183874         1
        13        12        11        15     9      180.000000       11.770770         2
        13        12        11        15     9        0.000000       -0.669596         3
        13        12        11        15     9      180.000000       -2.371236         4
        13        12        11        39     9        0.000000        3.046268         1
        13        12        11        39     9      180.000000       -0.789547         2
        13        12        11        39     9        0.000000       -0.188589         3
        13        12        11        39     9      180.000000        0.438255         4
        13        14        15        16     9        0.000000        0.141091         1
        13        14        15        16     9      180.000000       -1.554592         2
        13        14        15        16     9        0.000000        0.129275         3
        13        14        15        16     9      180.000000        0.187853         4
        13        14        15        44     9        0.000000        3.046267         1
        13        14        15        44     9      180.000000       -0.789546         2
        13        14        15        44     9        0.000000       -0.188588         3
        13        14        15        44     9      180.000000        0.438255         4
        13        17        18        19     9        0.000000        1.229501         1
        13        17        18        19     9      180.000000       16.103331         2
        13        17        18        19     9        0.000000        0.664455         3
        13        17        18        19     9      180.000000       -1.018198         4
        13        17        24        22     9        0.000000        1.229502         1
        13        17        24        22     9      180.000000       16.103329         2
        13        17        24        22     9        0.000000        0.664456         3
        13        17        24        22     9      180.000000       -1.018198         4
        14        13        12        40     9        0.000000       -0.040239         1
        14        13        12        40     9      180.000000       -0.063462         2
        14        13        12        40     9        0.000000        0.343610         3
        14        13        12        40     9      180.000000        0.107466         4
        14        13        12        41     9        0.000000       -0.040239         1
        14        13        12        41     9      180.000000       -0.063462         2
        14        13        12        41     9        0.000000        0.343610         3
        14        13        12        41     9      180.000000        0.107466         4
        14        13        17        18     9        0.000000        0.747627         1
        14        13        17        18     9      180.000000        9.366865         2
        14        13        17        18     9        0.000000       -0.095722         3
        14        13        17        18     9      180.000000       -1.018207         4
        14        13        17        24     9        0.000000        0.747630         1
        14        13        17        24     9      180.000000        9.366864         2
        14        13        17        24     9        0.000000       -0.095722         3
        14        13        17        24     9      180.000000       -1.018207         4
        14        15        11        39     9        0.000000        0.196399         1
        14        15        11        39     9      180.000000        0.124291         2
        14        15        11        39     9        0.000000        0.308842         3
        14        15        11        39     9      180.000000        0.285299         4
        14        15        16        45     9        0.000000       -0.090272         1
        14        15        16        45     9      180.000000        0.043314         2
        14        15        16        45     9        0.000000        0.181102         3
        14        15        16        45     9      180.000000        0.056845         4
        14        15        16        46     9        0.000000       -0.090272         1
        14        15        16        46     9      180.000000        0.043314         2
        14        15        16        46     9        0.000000        0.181102         3
        14        15        16        46     9      180.000000        0.056845         4
        15        11        10        37     9        0.000000        0.022484         1
        15        11        10        37     9      180.000000       -0.185435         2
        15        11        10        37     9        0.000000       -0.302150         3
        15        11        10        37     9      180.000000        0.229395         4
        15        11        10        38     9        0.000000        0.022484         1
        15        11        10        38     9      180.000000       -0.185435         2
        15        11        10        38     9        0.000000       -0.302150         3
        15        11        10        38     9      180.000000        0.229395         4
        15        11        12        40     9        0.000000        0.005453         1
        15        11        12        40     9      180.000000       -0.187956         2
        15        11        12        40     9        0.000000       -0.253494         3
        15        11        12        40     9      180.000000        0.289446         4
        15        11        12        41     9        0.000000        0.005453         1
        15        11        12        41     9      180.000000       -0.187956         2
        15        11        12        41     9        0.000000       -0.253494         3
        15        11        12        41     9      180.000000        0.289446         4
        15        14        13        17     9        0.000000       -3.777480         1
        15        14        13        17     9      180.000000       -0.445033         2
        15        14        13        17     9        0.000000        0.410580         3
        15        14        13        17     9      180.000000        0.178916         4
        16         9        10        37     9        0.000000       -0.036131         1
        16         9        10        37     9      180.000000       -0.000356         2
        16         9        10        37     9        0.000000        0.119650         3
        16         9        10        37     9      180.000000        0.062908         4
        16         9        10        38     9        0.000000       -0.036131         1
        16         9        10        38     9      180.000000       -0.000356         2
        16         9        10        38     9        0.000000        0.119650         3
        16         9        10        38     9      180.000000        0.062908         4
        16        15        11        39     9        0.000000       -0.022164         1
        16        15        11        39     9      180.000000        0.142975         2
        16        15        11        39     9        0.000000        0.388149         3
        16        15        11        39     9      180.000000        0.197014         4
        16        15        14        42     9        0.000000       -0.150867         1
        16        15        14        42     9      180.000000        0.072012         2
        16        15        14        42     9        0.000000        0.214875         3
        16        15        14        42     9      180.000000        0.045179         4
        16        15        14        43     9        0.000000       -0.150867         1
        16        15        14        43     9      180.000000        0.072012         2
        16        15        14        43     9        0.000000        0.214875         3
        16        15        14        43     9      180.000000        0.045179         4
        17        13        12        40     9        0.000000       -0.010160         1
        17        13        12        40     9      180.000000       -0.080811         2
        17        13        12        40     9        0.000000        0.536714         3
        17        13        12        40     9      180.000000       -0.022062         4
        17        13        12        41     9        0.000000       -0.010160         1
        17        13        12        41     9      180.000000       -0.080811         2
        17        13        12        41     9        0.000000        0.536714         3
        17        13        12        41     9      180.000000       -0.022062         4
        17        13        14        42     9        0.000000       -0.010161         1
        17        13        14        42     9      180.000000       -0.080811         2
        17        13        14        42     9        0.000000        0.536714         3
        17        13        14        42     9      180.000000       -0.022063         4
        17        13        14        43     9        0.000000       -0.010161         1
        17        13        14        43     9      180.000000       -0.080811         2
        17        13        14        43     9        0.000000        0.536714         3
        17        13        14        43     9      180.000000       -0.022062         4
        17        18        19        20     9        0.000000       -0.024261         1
        17        18        19        20     9      180.000000       17.595206         2
        17        18        19        20     9        0.000000        0.133710         3
        17        18        19        20     9      180.000000       -0.526294         4
        17        18        19        21     9        0.000000       -0.379284         1
        17        18        19        21     9      180.000000       19.341467         2
        17        18        19        21     9        0.000000       -1.106329         3
        17        18        19        21     9      180.000000       -0.500796         4
        17        24        22        21     9        0.000000       -0.379284         1
        17        24        22        21     9      180.000000       19.341467         2
        17        24        22        21     9        0.000000       -1.106329         3
        17        24        22        21     9      180.000000       -0.500796         4
        17        24        22        23     9        0.000000       -0.024262         1
        17        24        22        23     9      180.000000       17.595210         2
        17        24        22        23     9        0.000000        0.133710         3
        17        24        22        23     9      180.000000       -0.526294         4
        18        17        24        22     9        0.000000        0.513199         1
        18        17        24        22     9      180.000000        9.191426         2
        18        17        24        22     9        0.000000        0.738957         3
        18        17        24        22     9      180.000000       -0.519149         4
        18        19        20        47     9        0.000000        0.003881         1
        18        19        20        47     9      180.000000       -0.062736         2
        18        19        20        47     9        0.000000        0.023444         3
        18        19        20        47     9      180.000000       -0.007650         4
        18        19        20        48     9        0.000000        0.003881         1
        18        19        20        48     9      180.000000       -0.062736         2
        18        19        20        48     9        0.000000        0.023444         3
        18        19        20        48     9      180.000000       -0.007650         4
        18        19        20        49     9        0.000000        0.003881         1
        18        19        20        49     9      180.000000       -0.062736         2
        18        19        20        49     9        0.000000        0.023444         3
        18        19        20        49     9      180.000000       -0.007650         4
        18        19        21        22     9        0.000000       -0.062247         1
        18        19        21        22     9      180.000000       14.568155         2
        18        19        21        22     9        0.000000       -0.276619         3
        18        19        21        22     9      180.000000       -0.509286         4
        18        19        21        50     9        0.000000       -0.034010         1
        18        19        21        50     9      180.000000       12.223299         2
        18        19        21        50     9        0.000000       -0.267637         3
        18        19        21        50     9      180.000000       -0.072661         4
        19        18        17        24     9        0.000000        0.513200         1
        19        18        17        24     9      180.000000        9.191426         2
        19        18        17        24     9        0.000000        0.738957         3
        19        18        17        24     9      180.000000       -0.519149         4
        19        21        22        23     9        0.000000        0.256556         1
        19        21        22        23     9      180.000000       13.179426         2
        19        21        22        23     9        0.000000       -0.097633         3
        19        21        22        23     9      180.000000       -0.317869         4
        19        21        22        24     9        0.000000       -0.062248         1
        19        21        22        24     9      180.000000       14.568153         2
        19        21        22        24     9        0.000000       -0.276618         3
        19        21        22        24     9      180.000000       -0.509287         4
        20        19        21        22     9        0.000000        0.256556         1
        20        19        21        22     9      180.000000       13.179428         2
        20        19        21        22     9        0.000000       -0.097633         3
        20        19        21        22     9      180.000000       -0.317869         4
        20        19        21        50     9        0.000000       -0.223957         1
        20        19        21        50     9      180.000000       11.375068         2
        20        19        21        50     9        0.000000       -0.534832         3
        20        19        21        50     9      180.000000        0.134009         4
        21        19        20        47     9        0.000000       -0.025287         1
        21        19        20        47     9      180.000000       -0.035803         2
        21        19        20        47     9        0.000000       -0.089579         3
        21        19        20        47     9      180.000000        0.005712         4
        21        19        20        48     9        0.000000       -0.025287         1
        21        19        20        48     9      180.000000       -0.035803         2
        21        19        20        48     9        0.000000       -0.089579         3
        21        19        20        48     9      180.000000        0.005712         4
        21        19        20        49     9        0.000000       -0.025287         1
        21        19        20        49     9      180.000000       -0.035803         2
        21        19        20        49     9        0.000000       -0.089579         3
        21        19        20        49     9      180.000000        0.005712         4
        21        22        23        51     9        0.000000       -0.025287         1
        21        22        23        51     9      180.000000       -0.035803         2
        21        22        23        51     9        0.000000       -0.089578         3
        21        22        23        51     9      180.000000        0.005712         4
        21        22        23        52     9        0.000000       -0.025287         1
        21        22        23        52     9      180.000000       -0.035803         2
        21        22        23        52     9        0.000000       -0.089578         3
        21        22        23        52     9      180.000000        0.005712         4
        21        22        23        53     9        0.000000       -0.025287         1
        21        22        23        53     9      180.000000       -0.035803         2
        21        22        23        53     9        0.000000       -0.089578         3
        21        22        23        53     9      180.000000        0.005712         4
        23        22        21        50     9        0.000000       -0.223957         1
        23        22        21        50     9      180.000000       11.375068         2
        23        22        21        50     9        0.000000       -0.534831         3
        23        22        21        50     9      180.000000        0.134009         4
        24        22        21        50     9        0.000000       -0.034010         1
        24        22        21        50     9      180.000000       12.223298         2
        24        22        21        50     9        0.000000       -0.267637         3
        24        22        21        50     9      180.000000       -0.072661         4
        24        22        23        51     9        0.000000        0.003880         1
        24        22        23        51     9      180.000000       -0.062734         2
        24        22        23        51     9        0.000000        0.023445         3
        24        22        23        51     9      180.000000       -0.007650         4
        24        22        23        52     9        0.000000        0.003880         1
        24        22        23        52     9      180.000000       -0.062734         2
        24        22        23        52     9        0.000000        0.023445         3
        24        22        23        52     9      180.000000       -0.007650         4
        24        22        23        53     9        0.000000        0.003880         1
        24        22        23        53     9      180.000000       -0.062734         2
        24        22        23        53     9        0.000000        0.023445         3
        24        22        23        53     9      180.000000       -0.007650         4
        25         6         5        36     9        0.000000        0.272138         1
        25         6         5        36     9      180.000000       14.075174         2
        25         6         5        36     9        0.000000       -0.461118         3
        25         6         5        36     9      180.000000        0.023210         4
        25        27        28        29     9        0.000000        0.734852         1
        25        27        28        29     9      180.000000       14.204272         2
        25        27        28        29     9        0.000000        0.469663         3
        25        27        28        29     9      180.000000       -0.197032         4
        25        27        31        30     9        0.000000        0.734853         1
        25        27        31        30     9      180.000000       14.204272         2
        25        27        31        30     9        0.000000        0.469663         3
        25        27        31        30     9      180.000000       -0.197032         4
        26         3         4        35     9        0.000000        0.027525         1
        26         3         4        35     9      180.000000       12.332048         2
        26         3         4        35     9        0.000000       -0.417924         3
        26         3         4        35     9      180.000000        0.043949         4
        26        25        27        28     9        0.000000        0.535540         1
        26        25        27        28     9      180.000000        3.352949         2
        26        25        27        28     9        0.000000       -0.326790         3
        26        25        27        28     9      180.000000        0.088297         4
        26        25        27        31     9        0.000000        0.535540         1
        26        25        27        31     9      180.000000        3.352949         2
        26        25        27        31     9        0.000000       -0.326790         3
        26        25        27        31     9      180.000000        0.088297         4
        27        25        26        54     9        0.000000        0.145883         1
        27        25        26        54     9      180.000000       14.676772         2
        27        25        26        54     9        0.000000       -0.025063         3
        27        25        26        54     9      180.000000        0.127259         4
        27        28        29        30     9        0.000000       -0.109176         1
        27        28        29        30     9      180.000000       41.138424         2
        27        28        29        30     9        0.000000       -5.873812         3
        27        28        29        30     9      180.000000       -0.015823         4
        27        28        29        55     9        0.000000        1.278182         1
        27        28        29        55     9      180.000000       26.557516         2
        27        28        29        55     9        0.000000       -0.109342         3
        27        28        29        55     9      180.000000       -0.148505         4
        27        31        30        29     9        0.000000       -0.109176         1
        27        31        30        29     9      180.000000       41.138420         2
        27        31        30        29     9        0.000000       -5.873811         3
        27        31        30        29     9      180.000000       -0.015823         4
        27        31        30        56     9        0.000000        1.278182         1
        27        31        30        56     9      180.000000       26.557518         2
        27        31        30        56     9        0.000000       -0.109342         3
        27        31        30        56     9      180.000000       -0.148506         4
        28        27        31        30     9        0.000000       -0.214433         1
        28        27        31        30     9      180.000000       33.402591         2
        28        27        31        30     9        0.000000       -5.643052         3
        28        27        31        30     9      180.000000        0.091547         4
        28        29        30        31     9        0.000000       -0.646394         1
        28        29        30        31     9      180.000000       33.879568         2
        28        29        30        31     9        0.000000       -7.997882         3
        28        29        30        31     9      180.000000       -0.068922         4
        28        29        30        56     9        0.000000        0.399472         1
        28        29        30        56     9      180.000000       15.777787         2
        28        29        30        56     9        0.000000       -0.622625         3
        28        29        30        56     9      180.000000       -0.473181         4
        29        28        27        31     9        0.000000       -0.214435         1
        29        28        27        31     9      180.000000       33.402591         2
        29        28        27        31     9        0.000000       -5.643052         3
        29        28        27        31     9      180.000000        0.091547         4
        31        30        29        55     9        0.000000        0.399471         1
        31        30        29        55     9      180.000000       15.777787         2
        31        30        29        55     9        0.000000       -0.622625         3
        31        30        29        55     9      180.000000       -0.473181         4
        35         4         5        36     9        0.000000       -0.074630         1
        35         4         5        36     9      180.000000       12.597291         2
        35         4         5        36     9        0.000000       -0.664543         3
        35         4         5        36     9      180.000000        0.214052         4
        37        10        11        39     9        0.000000       -0.086594         1
        37        10        11        39     9      180.000000        0.026399         2
        37        10        11        39     9        0.000000        0.269152         3
        37        10        11        39     9      180.000000       -0.020189         4
        38        10        11        39     9        0.000000       -0.086594         1
        38        10        11        39     9      180.000000        0.026399         2
        38        10        11        39     9        0.000000        0.269152         3
        38        10        11        39     9      180.000000       -0.020189         4
        39        11        12        40     9        0.000000       -0.140740         1
        39        11        12        40     9      180.000000       -0.009946         2
        39        11        12        40     9        0.000000        0.295617         3
        39        11        12        40     9      180.000000       -0.018107         4
        39        11        12        41     9        0.000000       -0.140740         1
        39        11        12        41     9      180.000000       -0.009946         2
        39        11        12        41     9        0.000000        0.295617         3
        39        11        12        41     9      180.000000       -0.018107         4
        39        11        15        44     9        0.000000        0.223574         1
        39        11        15        44     9      180.000000       -0.077959         2
        39        11        15        44     9        0.000000        0.353694         3
        39        11        15        44     9      180.000000       -0.057173         4
        42        14        15        44     9        0.000000       -0.140741         1
        42        14        15        44     9      180.000000       -0.009947         2
        42        14        15        44     9        0.000000        0.295617         3
        42        14        15        44     9      180.000000       -0.018107         4
        43        14        15        44     9        0.000000       -0.140741         1
        43        14        15        44     9      180.000000       -0.009947         2
        43        14        15        44     9        0.000000        0.295617         3
        43        14        15        44     9      180.000000       -0.018107         4
        44        15        16        45     9        0.000000       -0.086596         1
        44        15        16        45     9      180.000000        0.026399         2
        44        15        16        45     9        0.000000        0.269152         3
        44        15        16        45     9      180.000000       -0.020190         4
        44        15        16        46     9        0.000000       -0.086596         1
        44        15        16        46     9      180.000000        0.026399         2
        44        15        16        46     9        0.000000        0.269152         3
        44        15        16        46     9      180.000000       -0.020190         4
        55        29        30        56     9        0.000000       -0.304766         1
        55        29        30        56     9      180.000000        8.321253         2
        55        29        30        56     9        0.000000       -0.141498         3
        55        29        30        56     9      180.000000        0.273252         4

[ dihedrals ] ; impropers
;       ai        aj        ak        al funct           phase               k        pn
         3         2         4        26     4      180.000000        0.357870         2
         3         4        26         2     4      180.000000        0.357870         2
         3        26         2         4     4      180.000000        0.357870         2
        17        13        18        24     4      180.000000       27.893333         2
        17        18        24        13     4      180.000000       27.893333         2
        17        24        13        18     4      180.000000       27.893333         2
        19        18        20        21     4      180.000000       21.793922         2
        19        20        21        18     4      180.000000       21.793922         2
        19        21        18        20     4      180.000000       21.793922         2
        22        21        23        24     4      180.000000       21.793922         2
        22        23        24        21     4      180.000000       21.793922         2
        22        24        21        23     4      180.000000       21.793922         2

[ pairs ]
;       ai        aj funct
         1         4     1
         1        26     1
         2         5     1
         2        25     1
         2        35     1
         2        54     1
         3         6     1
         3        27     1
         3        32     1
         3        33     1
         3        34     1
         3        36     1
         4         7     1
         4        25     1
         4        54     1
         5         8     1
         5         9     1
         5        26     1
         5        27     1
         6        10     1
         6        16     1
         6        28     1
         6        31     1
         6        35     1
         6        54     1
         7        11     1
         7        15     1
         7        26     1
         7        27     1
         7        36     1
         7        37     1
         7        38     1
         7        45     1
         7        46     1
         8        10     1
         8        16     1
         8        25     1
         9        12     1
         9        14     1
         9        25     1
         9        39     1
         9        44     1
        10        13     1
        10        14     1
        10        40     1
        10        41     1
        10        44     1
        10        45     1
        10        46     1
        11        17     1
        11        42     1
        11        43     1
        11        45     1
        11        46     1
        12        16     1
        12        18     1
        12        24     1
        12        37     1
        12        38     1
        12        42     1
        12        43     1
        12        44     1
        13        16     1
        13        19     1
        13        22     1
        13        39     1
        13        44     1
        14        18     1
        14        24     1
        14        39     1
        14        40     1
        14        41     1
        14        45     1
        14        46     1
        15        17     1
        15        37     1
        15        38     1
        15        40     1
        15        41     1
        16        37     1
        16        38     1
        16        39     1
        16        42     1
        16        43     1
        17        20     1
        17        21     1
        17        23     1
        17        40     1
        17        41     1
        17        42     1
        17        43     1
        18        22     1
        18        47     1
        18        48     1
        18        49     1
        18        50     1
        19        23     1
        19        24     1
        20        22     1
        20        50     1
        21        47     1
        21        48     1
        21        49     1
        21        51     1
        21        52     1
        21        53     1
        23        50     1
        24        50     1
        24        51     1
        24        52     1
        24        53     1
        25        29     1
        25        30     1
        25        36     1
        26        28     1
        26        31     1
        26        35     1
        27        54     1
        27        55     1
        27        56     1
        28        56     1
        31        55     1
        35        36     1
        37        39     1
        38        39     1
        39        40     1
        39        41     1
        39        44     1
        42        44     1
        43        44     1
        44        45     1
        44        46     1
        55        56     1
