; ITP file created by ByteFF-ML, 2025-12-06 04:45:47.739946

[ atomtypes ]
;name           bonded.type        at.num        mass        charge   ptype           sigma         epsilon
 c0bf                                   6      0.0000       0.00000       A     3.39777e-01     4.50277e-01
 c1bf                                   6      0.0000       0.00000       A     3.31488e-01     4.14038e-01
 c2bf                                   6      0.0000       0.00000       A     3.31380e-01     4.12518e-01
 n3bf                                   7      0.0000       0.00000       A     3.38347e-01     3.95780e-01
 c4bf                                   6      0.0000       0.00000       A     3.31494e-01     4.12491e-01
 n5bf                                   7      0.0000       0.00000       A     3.38159e-01     3.94689e-01
 c6bf                                   6      0.0000       0.00000       A     3.31401e-01     4.13166e-01
 c7bf                                   6      0.0000       0.00000       A     3.39793e-01     4.51437e-01
 n8bf                                   7      0.0000       0.00000       A     3.19420e-01     8.94129e-01
 c9bf                                   6      0.0000       0.00000       A     3.39585e-01     4.49212e-01
 c10bf                                  6      0.0000       0.00000       A     3.39712e-01     4.49806e-01
 c11bf                                  6      0.0000       0.00000       A     3.39727e-01     4.50797e-01
 n12bf                                  7      0.0000       0.00000       A     3.18172e-01     6.81534e-01
 c13bf                                  6      0.0000       0.00000       A     3.39727e-01     4.50797e-01
 c14bf                                  6      0.0000       0.00000       A     3.39712e-01     4.49806e-01
 c15bf                                  6      0.0000       0.00000       A     3.39585e-01     4.49212e-01
 c16bf                                  6      0.0000       0.00000       A     3.31327e-01     4.13248e-01
 o17bf                                  8      0.0000       0.00000       A     3.04514e-01     6.13792e-01
 c18bf                                  6      0.0000       0.00000       A     3.31273e-01     4.13283e-01
 c19bf                                  6      0.0000       0.00000       A     3.31521e-01     4.13918e-01
 f20bf                                  9      0.0000       0.00000       A     3.03540e-01     3.48621e-01
 c21bf                                  6      0.0000       0.00000       A     3.31463e-01     4.12493e-01
 c22bf                                  6      0.0000       0.00000       A     3.31469e-01     4.12700e-01
 c23bf                                  6      0.0000       0.00000       A     3.31436e-01     4.11484e-01
 c24bf                                  6      0.0000       0.00000       A     3.31571e-01     4.13495e-01
 n25bf                                  7      0.0000       0.00000       A     3.20910e-01     8.46558e-01
 n26bf                                  7      0.0000       0.00000       A     3.38251e-01     3.94826e-01
 c27bf                                  6      0.0000       0.00000       A     3.31301e-01     4.12308e-01
 c28bf                                  6      0.0000       0.00000       A     3.31301e-01     4.12308e-01
 n29bf                                  7      0.0000       0.00000       A     3.38251e-01     3.94826e-01
 h30bf                                  1      0.0000       0.00000       A     2.59993e-01     8.71837e-02
 h31bf                                  1      0.0000       0.00000       A     2.59993e-01     8.71837e-02
 h32bf                                  1      0.0000       0.00000       A     2.59993e-01     8.71837e-02
 h33bf                                  1      0.0000       0.00000       A     2.53594e-01     6.75568e-02
 h34bf                                  1      0.0000       0.00000       A     2.59954e-01     8.69108e-02
 h35bf                                  1      0.0000       0.00000       A     2.59954e-01     8.69108e-02
 h36bf                                  1      0.0000       0.00000       A     2.59954e-01     8.69108e-02
 h37bf                                  1      0.0000       0.00000       A     2.42127e-01     8.72842e-02
 h38bf                                  1      0.0000       0.00000       A     2.42127e-01     8.72842e-02
 h39bf                                  1      0.0000       0.00000       A     2.60149e-01     8.67575e-02
 h40bf                                  1      0.0000       0.00000       A     2.42171e-01     8.72571e-02
 h41bf                                  1      0.0000       0.00000       A     2.42171e-01     8.72571e-02
 h42bf                                  1      0.0000       0.00000       A     2.42171e-01     8.72571e-02
 h43bf                                  1      0.0000       0.00000       A     2.42171e-01     8.72571e-02
 h44bf                                  1      0.0000       0.00000       A     2.60149e-01     8.67575e-02
 h45bf                                  1      0.0000       0.00000       A     2.42127e-01     8.72842e-02
 h46bf                                  1      0.0000       0.00000       A     2.42127e-01     8.72842e-02
 h47bf                                  1      0.0000       0.00000       A     2.62509e-01     6.72536e-02
 h48bf                                  1      0.0000       0.00000       A     2.62495e-01     6.71945e-02
 h49bf                                  1      0.0000       0.00000       A     2.62555e-01     6.79734e-02
 h50bf                                  1      0.0000       0.00000       A     2.53897e-01     6.74946e-02
 h51bf                                  1      0.0000       0.00000       A     2.53897e-01     6.74946e-02

[ moleculetype ]
;name             nrexcl
 set_1_20              3

[ atoms ]
;       nr            type      resi   res      atom      cgnr      charge          mass ; qtot
         1            c0bf         1   UNL        c0         1    -0.02946       12.0110 ; qtot   -0.029
         2            c1bf         1   UNL        c1         2    -0.24182       12.0110 ; qtot   -0.271
         3            c2bf         1   UNL        c2         3     0.14310       12.0110 ; qtot   -0.128
         4            n3bf         1   UNL        n3         4    -0.23710       14.0070 ; qtot   -0.365
         5            c4bf         1   UNL        c4         5     0.37246       12.0110 ; qtot    0.007
         6            n5bf         1   UNL        n5         6    -0.24270       14.0070 ; qtot   -0.236
         7            c6bf         1   UNL        c6         7     0.16415       12.0110 ; qtot   -0.071
         8            c7bf         1   UNL        c7         8    -0.15171       12.0110 ; qtot   -0.223
         9            n8bf         1   UNL        n8         9    -0.78163       14.0070 ; qtot   -1.005
        10            c9bf         1   UNL        c9        10     0.23699       12.0110 ; qtot   -0.768
        11           c10bf         1   UNL       c10        11    -0.10223       12.0110 ; qtot   -0.870
        12           c11bf         1   UNL       c11        12     0.11230       12.0110 ; qtot   -0.758
        13           n12bf         1   UNL       n12        13    -0.41240       14.0070 ; qtot   -1.170
        14           c13bf         1   UNL       c13        14     0.11230       12.0110 ; qtot   -1.058
        15           c14bf         1   UNL       c14        15    -0.10223       12.0110 ; qtot   -1.160
        16           c15bf         1   UNL       c15        16     0.23699       12.0110 ; qtot   -0.923
        17           c16bf         1   UNL       c16        17     0.64532       12.0110 ; qtot   -0.278
        18           o17bf         1   UNL       o17        18    -0.58742       15.9990 ; qtot   -0.865
        19           c18bf         1   UNL       c18        19    -0.15190       12.0110 ; qtot   -1.017
        20           c19bf         1   UNL       c19        20     0.19456       12.0110 ; qtot   -0.822
        21           f20bf         1   UNL       f20        21    -0.16798       18.9980 ; qtot   -0.990
        22           c21bf         1   UNL       c21        22    -0.14840       12.0110 ; qtot   -1.139
        23           c22bf         1   UNL       c22        23    -0.06562       12.0110 ; qtot   -1.204
        24           c23bf         1   UNL       c23        24    -0.10373       12.0110 ; qtot   -1.308
        25           c24bf         1   UNL       c24        25     0.06898       12.0110 ; qtot   -1.239
        26           n25bf         1   UNL       n25        26     0.31512       14.0070 ; qtot   -0.924
        27           n26bf         1   UNL       n26        27    -0.47882       14.0070 ; qtot   -1.403
        28           c27bf         1   UNL       c27        28     0.20629       12.0110 ; qtot   -1.197
        29           c28bf         1   UNL       c28        29     0.20629       12.0110 ; qtot   -0.990
        30           n29bf         1   UNL       n29        30    -0.47882       14.0070 ; qtot   -1.469
        31           h30bf         1   UNL       h30        31     0.04735        1.0080 ; qtot   -1.422
        32           h31bf         1   UNL       h31        32     0.04735        1.0080 ; qtot   -1.374
        33           h32bf         1   UNL       h32        33     0.04735        1.0080 ; qtot   -1.327
        34           h33bf         1   UNL       h33        34     0.01719        1.0080 ; qtot   -1.310
        35           h34bf         1   UNL       h34        35     0.05661        1.0080 ; qtot   -1.253
        36           h35bf         1   UNL       h35        36     0.05661        1.0080 ; qtot   -1.197
        37           h36bf         1   UNL       h36        37     0.05661        1.0080 ; qtot   -1.140
        38           h37bf         1   UNL       h37        38     0.05798        1.0080 ; qtot   -1.082
        39           h38bf         1   UNL       h38        39     0.05798        1.0080 ; qtot   -1.024
        40           h39bf         1   UNL       h39        40     0.07208        1.0080 ; qtot   -0.952
        41           h40bf         1   UNL       h40        41     0.06015        1.0080 ; qtot   -0.892
        42           h41bf         1   UNL       h41        42     0.06015        1.0080 ; qtot   -0.832
        43           h42bf         1   UNL       h42        43     0.06015        1.0080 ; qtot   -0.772
        44           h43bf         1   UNL       h43        44     0.06015        1.0080 ; qtot   -0.711
        45           h44bf         1   UNL       h44        45     0.07208        1.0080 ; qtot   -0.639
        46           h45bf         1   UNL       h45        46     0.05798        1.0080 ; qtot   -0.581
        47           h46bf         1   UNL       h46        47     0.05798        1.0080 ; qtot   -0.523
        48           h47bf         1   UNL       h47        48     0.14181        1.0080 ; qtot   -0.382
        49           h48bf         1   UNL       h48        49     0.12690        1.0080 ; qtot   -0.255
        50           h49bf         1   UNL       h49        50     0.14214        1.0080 ; qtot   -0.113
        51           h50bf         1   UNL       h50        51     0.05626        1.0080 ; qtot   -0.056
        52           h51bf         1   UNL       h51        52     0.05626        1.0080 ; qtot    0.000

[ bonds ]
;       ai        aj funct               r               k
         1         2     1        0.150783   207818.889282
         1        31     1        0.109413   300865.632861
         1        32     1        0.109413   300865.632861
         1        33     1        0.109413   300865.632861
         2         3     1        0.139667   290240.382227
         2         7     1        0.141166   257742.035596
         3         4     1        0.133557   347095.896094
         3        34     1        0.109053   306426.593799
         4         5     1        0.134960   256632.652490
         5         6     1        0.135118   252288.534814
         5         9     1        0.136235   321035.786719
         6         7     1        0.133614   338725.342383
         7         8     1        0.150783   204310.831030
         8        35     1        0.109359   304885.199414
         8        36     1        0.109359   304885.199414
         8        37     1        0.109359   304885.199414
         9        10     1        0.146901   180858.737256
         9        16     1        0.146901   180858.737256
        10        11     1        0.153334   175036.020947
        10        38     1        0.109481   294444.786377
        10        39     1        0.109481   294444.786377
        11        12     1        0.153427   175080.787500
        11        15     1        0.154277   149842.130322
        11        40     1        0.109325   303915.887354
        12        13     1        0.147261   177221.078174
        12        41     1        0.109385   298254.744336
        12        42     1        0.109385   298254.744336
        13        14     1        0.147261   177221.103711
        13        17     1        0.135519   319235.369434
        14        15     1        0.153427   175080.787500
        14        43     1        0.109385   298254.744336
        14        44     1        0.109385   298254.744336
        15        16     1        0.153334   175036.020947
        15        45     1        0.109325   303915.912891
        16        46     1        0.109481   294444.811914
        16        47     1        0.109481   294444.811914
        17        18     1        0.123360   594256.707031
        17        19     1        0.151390   177572.570947
        19        20     1        0.139458   293723.388574
        19        25     1        0.140413   276391.377979
        20        21     1        0.135748   284734.964502
        20        22     1        0.139016   308702.537598
        22        23     1        0.139696   310400.653223
        22        48     1        0.108455   325846.007715
        23        24     1        0.139473   319062.687500
        23        49     1        0.108533   323324.933203
        24        25     1        0.139859   295100.783643
        24        50     1        0.108380   327020.204004
        25        26     1        0.142246   231473.134814
        26        27     1        0.134040   244717.267090
        26        30     1        0.134040   244717.267090
        27        28     1        0.133423   350873.498535
        28        29     1        0.141148   279463.543311
        28        51     1        0.108128   339085.415625
        29        30     1        0.133423   350873.498535
        29        52     1        0.108128   339085.415625

[ angles ]
;       ai        aj        ak funct           theta             cth
         1         2         3     1      122.115517      470.324541
         1         2         7     1      122.794823      541.621724
         2         1        31     1      111.394165      468.471057
         2         1        32     1      111.394165      468.471057
         2         1        33     1      111.394165      468.471057
         2         3         4     1      124.359642      751.638720
         2         3        34     1      119.981979      382.173982
         2         7         6     1      121.913513      762.335449
         2         7         8     1      121.331642      422.067735
         3         2         7     1      115.063194      722.966420
         3         4         5     1      115.549637      976.722738
         4         3        34     1      115.575783      387.165402
         4         5         6     1      125.572250      598.273694
         4         5         9     1      117.305763      566.403510
         5         6         7     1      117.243698      972.756314
         5         9        10     1      122.705589      492.215366
         5         9        16     1      122.705589      492.215366
         6         5         9     1      116.899010      547.342356
         6         7         8     1      116.388138      450.994545
         7         8        35     1      110.617958      500.188275
         7         8        36     1      110.617958      500.188275
         7         8        37     1      110.617958      500.188275
         9        10        11     1      102.896164      518.893122
         9        10        38     1      110.657394      411.591551
         9        10        39     1      110.657394      411.591551
         9        16        15     1      102.896164      518.893186
         9        16        46     1      110.657394      411.591519
         9        16        47     1      110.657394      411.591519
        10         9        16     1      113.044533      338.359293
        10        11        12     1      115.967918      490.766039
        10        11        15     1      103.531944      553.400524
        10        11        40     1      110.411415      471.837231
        11        10        38     1      112.134521      456.886371
        11        10        39     1      112.134521      456.886371
        11        12        13     1      103.310646      531.297103
        11        12        41     1      112.216675      453.127085
        11        12        42     1      112.216675      453.127085
        11        15        14     1      103.849327      536.391532
        11        15        16     1      103.531944      553.400524
        11        15        45     1      111.068626      475.836438
        12        11        15     1      103.849327      536.391532
        12        11        40     1      110.495773      465.529182
        12        13        14     1      111.682663      397.236312
        12        13        17     1      123.751732      462.075033
        13        12        41     1      110.410095      437.420741
        13        12        42     1      110.410095      437.420741
        13        14        15     1      103.310646      531.297103
        13        14        43     1      110.410095      437.420741
        13        14        44     1      110.410095      437.420741
        13        17        18     1      123.358742      631.986382
        13        17        19     1      116.499901      442.236497
        14        13        17     1      123.751732      462.075033
        14        15        16     1      115.967918      490.766039
        14        15        45     1      110.495773      465.529246
        15        11        40     1      111.068642      475.836438
        15        14        43     1      112.216675      453.127085
        15        14        44     1      112.216675      453.127085
        15        16        46     1      112.134521      456.886371
        15        16        47     1      112.134521      456.886371
        16        15        45     1      110.411415      471.837167
        17        19        20     1      120.170364      658.951909
        17        19        25     1      123.059631      563.306688
        18        17        19     1      119.672501      497.066650
        19        20        21     1      118.381653      447.457304
        19        20        22     1      123.063400      625.661925
        19        25        24     1      121.246506      661.938219
        19        25        26     1      119.852539      464.186441
        20        19        25     1      116.733643      734.512130
        20        22        23     1      118.224327      691.816126
        20        22        48     1      119.628578      419.195289
        21        20        22     1      118.309547      519.263729
        22        23        24     1      120.316055      729.245229
        22        23        49     1      119.748978      430.367360
        23        22        48     1      122.164230      418.572822
        23        24        25     1      119.566689      681.094307
        23        24        50     1      121.180099      420.410728
        24        23        49     1      119.884033      429.820291
        24        25        26     1      118.315903      543.668715
        25        24        50     1      119.153160      420.650809
        25        26        27     1      121.993149      521.996040
        25        26        30     1      121.993149      521.996040
        26        27        28     1      103.760353      480.370712
        26        30        29     1      103.760353      480.370712
        27        26        30     1      115.047997      210.842914
        27        28        29     1      108.709312      295.765661
        27        28        51     1      120.742882      391.074016
        28        29        30     1      108.709312      295.765661
        28        29        52     1      130.286758      343.611766
        29        28        51     1      130.286758      343.611766
        30        29        52     1      120.742882      391.074016
        31         1        32     1      107.633446      355.907022
        31         1        33     1      107.633446      355.907022
        32         1        33     1      107.633446      355.907022
        35         8        36     1      108.324951      359.683610
        35         8        37     1      108.324951      359.683610
        36         8        37     1      108.324951      359.683610
        38        10        39     1      107.788414      347.454335
        41        12        42     1      107.816490      348.007916
        43        14        44     1      107.816490      348.007948
        46        16        47     1      107.788414      347.454335

[ dihedrals ] ; propers for gromacs 4.5 or higher, use funct 9
;       ai        aj        ak        al funct           phase               k        pn
         1         2         3         4     9        0.000000        0.045663         1
         1         2         3         4     9      180.000000       14.742714         2
         1         2         3         4     9        0.000000       -0.011725         3
         1         2         3         4     9      180.000000       -0.319191         4
         1         2         3        34     9        0.000000       -0.152786         1
         1         2         3        34     9      180.000000       12.529305         2
         1         2         3        34     9        0.000000       -0.339681         3
         1         2         3        34     9      180.000000        0.234440         4
         1         2         7         6     9        0.000000       -0.068048         1
         1         2         7         6     9      180.000000       13.381383         2
         1         2         7         6     9        0.000000       -0.112386         3
         1         2         7         6     9      180.000000       -0.376364         4
         1         2         7         8     9        0.000000       -0.087977         1
         1         2         7         8     9      180.000000       13.462856         2
         1         2         7         8     9        0.000000       -0.181486         3
         1         2         7         8     9      180.000000       -0.148931         4
         2         3         4         5     9        0.000000       -0.250470         1
         2         3         4         5     9      180.000000       19.948335         2
         2         3         4         5     9        0.000000       -1.347209         3
         2         3         4         5     9      180.000000       -0.378901         4
         2         7         6         5     9        0.000000       -0.342485         1
         2         7         6         5     9      180.000000       20.279843         2
         2         7         6         5     9        0.000000       -1.013936         3
         2         7         6         5     9      180.000000       -0.480095         4
         2         7         8        35     9        0.000000       -0.000552         1
         2         7         8        35     9      180.000000       -0.007818         2
         2         7         8        35     9        0.000000        0.009957         3
         2         7         8        35     9      180.000000       -0.005347         4
         2         7         8        36     9        0.000000       -0.000552         1
         2         7         8        36     9      180.000000       -0.007818         2
         2         7         8        36     9        0.000000        0.009957         3
         2         7         8        36     9      180.000000       -0.005347         4
         2         7         8        37     9        0.000000       -0.000552         1
         2         7         8        37     9      180.000000       -0.007818         2
         2         7         8        37     9        0.000000        0.009957         3
         2         7         8        37     9      180.000000       -0.005347         4
         3         2         1        31     9        0.000000       -0.008858         1
         3         2         1        31     9      180.000000       -0.000958         2
         3         2         1        31     9        0.000000       -0.108011         3
         3         2         1        31     9      180.000000        0.004667         4
         3         2         1        32     9        0.000000       -0.008858         1
         3         2         1        32     9      180.000000       -0.000958         2
         3         2         1        32     9        0.000000       -0.108011         3
         3         2         1        32     9      180.000000        0.004667         4
         3         2         1        33     9        0.000000       -0.008858         1
         3         2         1        33     9      180.000000       -0.000958         2
         3         2         1        33     9        0.000000       -0.108011         3
         3         2         1        33     9      180.000000        0.004667         4
         3         2         7         6     9        0.000000       -0.113441         1
         3         2         7         6     9      180.000000       14.053324         2
         3         2         7         6     9        0.000000       -0.432272         3
         3         2         7         6     9      180.000000       -0.345806         4
         3         2         7         8     9        0.000000        0.076380         1
         3         2         7         8     9      180.000000       12.495530         2
         3         2         7         8     9        0.000000       -0.088979         3
         3         2         7         8     9      180.000000       -0.246474         4
         3         4         5         6     9        0.000000        0.294078         1
         3         4         5         6     9      180.000000       10.334897         2
         3         4         5         6     9        0.000000        0.749521         3
         3         4         5         6     9      180.000000       -0.442697         4
         3         4         5         9     9        0.000000        0.884274         1
         3         4         5         9     9      180.000000       16.251715         2
         3         4         5         9     9        0.000000        0.633702         3
         3         4         5         9     9      180.000000       -0.881571         4
         4         3         2         7     9        0.000000       -0.001722         1
         4         3         2         7     9      180.000000       16.150264         2
         4         3         2         7     9        0.000000       -0.622395         3
         4         3         2         7     9      180.000000       -0.434308         4
         4         5         6         7     9        0.000000        0.385267         1
         4         5         6         7     9      180.000000        9.012807         2
         4         5         6         7     9        0.000000        0.757778         3
         4         5         6         7     9      180.000000       -0.480040         4
         4         5         9        10     9        0.000000        0.670486         1
         4         5         9        10     9      180.000000        8.926991         2
         4         5         9        10     9        0.000000       -0.142851         3
         4         5         9        10     9      180.000000       -0.960394         4
         4         5         9        16     9        0.000000        0.670485         1
         4         5         9        16     9      180.000000        8.926990         2
         4         5         9        16     9        0.000000       -0.142852         3
         4         5         9        16     9      180.000000       -0.960394         4
         5         4         3        34     9        0.000000        0.081693         1
         5         4         3        34     9      180.000000       17.572055         2
         5         4         3        34     9        0.000000       -0.077731         3
         5         4         3        34     9      180.000000       -0.226679         4
         5         6         7         8     9        0.000000       -0.143267         1
         5         6         7         8     9      180.000000       19.067576         2
         5         6         7         8     9        0.000000        0.153286         3
         5         6         7         8     9      180.000000       -0.562901         4
         5         9        10        11     9        0.000000       -3.587511         1
         5         9        10        11     9      180.000000       -0.495427         2
         5         9        10        11     9        0.000000        0.412820         3
         5         9        10        11     9      180.000000        0.202442         4
         5         9        10        38     9        0.000000       -0.014943         1
         5         9        10        38     9      180.000000       -0.088374         2
         5         9        10        38     9        0.000000        0.557935         3
         5         9        10        38     9      180.000000       -0.017430         4
         5         9        10        39     9        0.000000       -0.014943         1
         5         9        10        39     9      180.000000       -0.088374         2
         5         9        10        39     9        0.000000        0.557935         3
         5         9        10        39     9      180.000000       -0.017430         4
         5         9        16        15     9        0.000000       -3.587510         1
         5         9        16        15     9      180.000000       -0.495427         2
         5         9        16        15     9        0.000000        0.412820         3
         5         9        16        15     9      180.000000        0.202442         4
         5         9        16        46     9        0.000000       -0.014942         1
         5         9        16        46     9      180.000000       -0.088375         2
         5         9        16        46     9        0.000000        0.557935         3
         5         9        16        46     9      180.000000       -0.017430         4
         5         9        16        47     9        0.000000       -0.014942         1
         5         9        16        47     9      180.000000       -0.088375         2
         5         9        16        47     9        0.000000        0.557935         3
         5         9        16        47     9      180.000000       -0.017430         4
         6         5         9        10     9        0.000000        0.980104         1
         6         5         9        10     9      180.000000        8.992205         2
         6         5         9        10     9        0.000000       -0.027324         3
         6         5         9        10     9      180.000000       -1.013863         4
         6         5         9        16     9        0.000000        0.980101         1
         6         5         9        16     9      180.000000        8.992205         2
         6         5         9        16     9        0.000000       -0.027324         3
         6         5         9        16     9      180.000000       -1.013863         4
         6         7         8        35     9        0.000000        0.008393         1
         6         7         8        35     9      180.000000       -0.027820         2
         6         7         8        35     9        0.000000       -0.012289         3
         6         7         8        35     9      180.000000       -0.021535         4
         6         7         8        36     9        0.000000        0.008393         1
         6         7         8        36     9      180.000000       -0.027820         2
         6         7         8        36     9        0.000000       -0.012289         3
         6         7         8        36     9      180.000000       -0.021535         4
         6         7         8        37     9        0.000000        0.008393         1
         6         7         8        37     9      180.000000       -0.027820         2
         6         7         8        37     9        0.000000       -0.012289         3
         6         7         8        37     9      180.000000       -0.021535         4
         7         2         1        31     9        0.000000       -0.009823         1
         7         2         1        31     9      180.000000       -0.016072         2
         7         2         1        31     9        0.000000        0.191606         3
         7         2         1        31     9      180.000000        0.016481         4
         7         2         1        32     9        0.000000       -0.009823         1
         7         2         1        32     9      180.000000       -0.016072         2
         7         2         1        32     9        0.000000        0.191606         3
         7         2         1        32     9      180.000000        0.016481         4
         7         2         1        33     9        0.000000       -0.009823         1
         7         2         1        33     9      180.000000       -0.016072         2
         7         2         1        33     9        0.000000        0.191606         3
         7         2         1        33     9      180.000000        0.016481         4
         7         2         3        34     9        0.000000        0.295932         1
         7         2         3        34     9      180.000000       13.746184         2
         7         2         3        34     9        0.000000       -0.575785         3
         7         2         3        34     9      180.000000       -0.003122         4
         7         6         5         9     9        0.000000        1.034452         1
         7         6         5         9     9      180.000000       15.774911         2
         7         6         5         9     9        0.000000        0.577362         3
         7         6         5         9     9      180.000000       -1.012556         4
         9        10        11        12     9        0.000000        0.125825         1
         9        10        11        12     9      180.000000       -1.570473         2
         9        10        11        12     9        0.000000        0.127607         3
         9        10        11        12     9      180.000000        0.190323         4
         9        10        11        15     9        0.000000       -3.202014         1
         9        10        11        15     9      180.000000       11.750498         2
         9        10        11        15     9        0.000000       -0.669209         3
         9        10        11        15     9      180.000000       -2.372409         4
         9        10        11        40     9        0.000000        3.051093         1
         9        10        11        40     9      180.000000       -0.790161         2
         9        10        11        40     9        0.000000       -0.187614         3
         9        10        11        40     9      180.000000        0.436888         4
         9        16        15        11     9        0.000000       -3.202011         1
         9        16        15        11     9      180.000000       11.750500         2
         9        16        15        11     9        0.000000       -0.669209         3
         9        16        15        11     9      180.000000       -2.372410         4
         9        16        15        14     9        0.000000        0.125825         1
         9        16        15        14     9      180.000000       -1.570472         2
         9        16        15        14     9        0.000000        0.127607         3
         9        16        15        14     9      180.000000        0.190323         4
         9        16        15        45     9        0.000000        3.051090         1
         9        16        15        45     9      180.000000       -0.790161         2
         9        16        15        45     9        0.000000       -0.187614         3
         9        16        15        45     9      180.000000        0.436888         4
        10         9        16        15     9        0.000000       -0.505979         1
        10         9        16        15     9      180.000000        0.699198         2
        10         9        16        15     9        0.000000        0.376289         3
        10         9        16        15     9      180.000000       -0.310398         4
        10         9        16        46     9        0.000000       -0.039861         1
        10         9        16        46     9      180.000000       -0.062665         2
        10         9        16        46     9        0.000000        0.341065         3
        10         9        16        46     9      180.000000        0.107718         4
        10         9        16        47     9        0.000000       -0.039861         1
        10         9        16        47     9      180.000000       -0.062665         2
        10         9        16        47     9        0.000000        0.341065         3
        10         9        16        47     9      180.000000        0.107718         4
        10        11        12        13     9        0.000000       -0.177639         1
        10        11        12        13     9      180.000000       -1.441188         2
        10        11        12        13     9        0.000000        0.139510         3
        10        11        12        13     9      180.000000        0.103643         4
        10        11        12        41     9        0.000000       -0.090271         1
        10        11        12        41     9      180.000000        0.043314         2
        10        11        12        41     9        0.000000        0.181102         3
        10        11        12        41     9      180.000000        0.056845         4
        10        11        12        42     9        0.000000       -0.090271         1
        10        11        12        42     9      180.000000        0.043314         2
        10        11        12        42     9        0.000000        0.181102         3
        10        11        12        42     9      180.000000        0.056845         4
        10        11        15        14     9        0.000000       -1.429697         1
        10        11        15        14     9      180.000000       -0.955407         2
        10        11        15        14     9        0.000000        0.546147         3
        10        11        15        14     9      180.000000       -0.724521         4
        10        11        15        16     9        0.000000       -1.723216         1
        10        11        15        16     9      180.000000       -1.104300         2
        10        11        15        16     9        0.000000        0.465854         3
        10        11        15        16     9      180.000000       -0.749204         4
        10        11        15        45     9        0.000000        0.196400         1
        10        11        15        45     9      180.000000        0.124290         2
        10        11        15        45     9        0.000000        0.308843         3
        10        11        15        45     9      180.000000        0.285300         4
        11        10         9        16     9        0.000000       -0.505981         1
        11        10         9        16     9      180.000000        0.699200         2
        11        10         9        16     9        0.000000        0.376290         3
        11        10         9        16     9      180.000000       -0.310399         4
        11        12        13        14     9        0.000000       -0.098874         1
        11        12        13        14     9      180.000000       -0.275992         2
        11        12        13        14     9        0.000000        0.219330         3
        11        12        13        14     9      180.000000       -0.018668         4
        11        12        13        17     9        0.000000       -0.924898         1
        11        12        13        17     9      180.000000       -0.742800         2
        11        12        13        17     9        0.000000        0.102247         3
        11        12        13        17     9      180.000000        0.138445         4
        11        15        14        13     9        0.000000       -2.932575         1
        11        15        14        13     9      180.000000        7.822341         2
        11        15        14        13     9        0.000000       -0.704965         3
        11        15        14        13     9      180.000000       -1.187778         4
        11        15        14        43     9        0.000000        0.022483         1
        11        15        14        43     9      180.000000       -0.185436         2
        11        15        14        43     9        0.000000       -0.302149         3
        11        15        14        43     9      180.000000        0.229395         4
        11        15        14        44     9        0.000000        0.022483         1
        11        15        14        44     9      180.000000       -0.185436         2
        11        15        14        44     9        0.000000       -0.302149         3
        11        15        14        44     9      180.000000        0.229395         4
        11        15        16        46     9        0.000000        0.005453         1
        11        15        16        46     9      180.000000       -0.187956         2
        11        15        16        46     9        0.000000       -0.253493         3
        11        15        16        46     9      180.000000        0.289446         4
        11        15        16        47     9        0.000000        0.005453         1
        11        15        16        47     9      180.000000       -0.187956         2
        11        15        16        47     9        0.000000       -0.253493         3
        11        15        16        47     9      180.000000        0.289446         4
        12        11        10        38     9        0.000000       -0.150868         1
        12        11        10        38     9      180.000000        0.072012         2
        12        11        10        38     9        0.000000        0.214875         3
        12        11        10        38     9      180.000000        0.045180         4
        12        11        10        39     9        0.000000       -0.150868         1
        12        11        10        39     9      180.000000        0.072012         2
        12        11        10        39     9        0.000000        0.214875         3
        12        11        10        39     9      180.000000        0.045180         4
        12        11        15        14     9        0.000000       -0.903494         1
        12        11        15        14     9      180.000000       -0.930898         2
        12        11        15        14     9        0.000000        0.568820         3
        12        11        15        14     9      180.000000       -0.686260         4
        12        11        15        16     9        0.000000       -1.429699         1
        12        11        15        16     9      180.000000       -0.955405         2
        12        11        15        16     9        0.000000        0.546147         3
        12        11        15        16     9      180.000000       -0.724522         4
        12        11        15        45     9        0.000000       -0.022164         1
        12        11        15        45     9      180.000000        0.142975         2
        12        11        15        45     9        0.000000        0.388150         3
        12        11        15        45     9      180.000000        0.197015         4
        12        13        14        15     9        0.000000       -0.098875         1
        12        13        14        15     9      180.000000       -0.275991         2
        12        13        14        15     9        0.000000        0.219330         3
        12        13        14        15     9      180.000000       -0.018668         4
        12        13        14        43     9        0.000000       -0.018324         1
        12        13        14        43     9      180.000000       -0.010219         2
        12        13        14        43     9        0.000000        0.119733         3
        12        13        14        43     9      180.000000        0.059477         4
        12        13        14        44     9        0.000000       -0.018324         1
        12        13        14        44     9      180.000000       -0.010219         2
        12        13        14        44     9        0.000000        0.119733         3
        12        13        14        44     9      180.000000        0.059477         4
        12        13        17        18     9        0.000000       -0.772407         1
        12        13        17        18     9      180.000000       13.817704         2
        12        13        17        18     9        0.000000       -1.124658         3
        12        13        17        18     9      180.000000       -0.523087         4
        12        13        17        19     9        0.000000        3.807755         1
        12        13        17        19     9      180.000000       11.423134         2
        12        13        17        19     9        0.000000        0.950522         3
        12        13        17        19     9      180.000000       -0.728722         4
        13        12        11        15     9        0.000000       -2.932575         1
        13        12        11        15     9      180.000000        7.822339         2
        13        12        11        15     9        0.000000       -0.704966         3
        13        12        11        15     9      180.000000       -1.187778         4
        13        12        11        40     9        0.000000        0.949044         1
        13        12        11        40     9      180.000000       -0.377382         2
        13        12        11        40     9        0.000000       -0.056736         3
        13        12        11        40     9      180.000000        0.252566         4
        13        14        15        16     9        0.000000       -0.177640         1
        13        14        15        16     9      180.000000       -1.441189         2
        13        14        15        16     9        0.000000        0.139510         3
        13        14        15        16     9      180.000000        0.103643         4
        13        14        15        45     9        0.000000        0.949044         1
        13        14        15        45     9      180.000000       -0.377382         2
        13        14        15        45     9        0.000000       -0.056736         3
        13        14        15        45     9      180.000000        0.252566         4
        13        17        19        20     9        0.000000       -0.368550         1
        13        17        19        20     9      180.000000        3.799954         2
        13        17        19        20     9        0.000000       -0.343838         3
        13        17        19        20     9      180.000000        0.220400         4
        13        17        19        25     9        0.000000        1.305198         1
        13        17        19        25     9      180.000000        4.080130         2
        13        17        19        25     9        0.000000       -0.555958         3
        13        17        19        25     9      180.000000        0.231954         4
        14        13        12        41     9        0.000000       -0.018324         1
        14        13        12        41     9      180.000000       -0.010219         2
        14        13        12        41     9        0.000000        0.119733         3
        14        13        12        41     9      180.000000        0.059477         4
        14        13        12        42     9        0.000000       -0.018324         1
        14        13        12        42     9      180.000000       -0.010219         2
        14        13        12        42     9        0.000000        0.119733         3
        14        13        12        42     9      180.000000        0.059477         4
        14        13        17        18     9        0.000000       -0.772407         1
        14        13        17        18     9      180.000000       13.817704         2
        14        13        17        18     9        0.000000       -1.124658         3
        14        13        17        18     9      180.000000       -0.523087         4
        14        13        17        19     9        0.000000        3.807756         1
        14        13        17        19     9      180.000000       11.423134         2
        14        13        17        19     9        0.000000        0.950522         3
        14        13        17        19     9      180.000000       -0.728722         4
        14        15        11        40     9        0.000000       -0.022163         1
        14        15        11        40     9      180.000000        0.142975         2
        14        15        11        40     9        0.000000        0.388150         3
        14        15        11        40     9      180.000000        0.197014         4
        14        15        16        46     9        0.000000       -0.150868         1
        14        15        16        46     9      180.000000        0.072012         2
        14        15        16        46     9        0.000000        0.214875         3
        14        15        16        46     9      180.000000        0.045180         4
        14        15        16        47     9        0.000000       -0.150868         1
        14        15        16        47     9      180.000000        0.072012         2
        14        15        16        47     9        0.000000        0.214875         3
        14        15        16        47     9      180.000000        0.045180         4
        15        11        10        38     9        0.000000        0.005454         1
        15        11        10        38     9      180.000000       -0.187956         2
        15        11        10        38     9        0.000000       -0.253494         3
        15        11        10        38     9      180.000000        0.289446         4
        15        11        10        39     9        0.000000        0.005454         1
        15        11        10        39     9      180.000000       -0.187956         2
        15        11        10        39     9        0.000000       -0.253494         3
        15        11        10        39     9      180.000000        0.289446         4
        15        11        12        41     9        0.000000        0.022483         1
        15        11        12        41     9      180.000000       -0.185435         2
        15        11        12        41     9        0.000000       -0.302149         3
        15        11        12        41     9      180.000000        0.229395         4
        15        11        12        42     9        0.000000        0.022483         1
        15        11        12        42     9      180.000000       -0.185435         2
        15        11        12        42     9        0.000000       -0.302149         3
        15        11        12        42     9      180.000000        0.229395         4
        15        14        13        17     9        0.000000       -0.924897         1
        15        14        13        17     9      180.000000       -0.742800         2
        15        14        13        17     9        0.000000        0.102247         3
        15        14        13        17     9      180.000000        0.138445         4
        16         9        10        38     9        0.000000       -0.039860         1
        16         9        10        38     9      180.000000       -0.062664         2
        16         9        10        38     9        0.000000        0.341065         3
        16         9        10        38     9      180.000000        0.107718         4
        16         9        10        39     9        0.000000       -0.039860         1
        16         9        10        39     9      180.000000       -0.062664         2
        16         9        10        39     9        0.000000        0.341065         3
        16         9        10        39     9      180.000000        0.107718         4
        16        15        11        40     9        0.000000        0.196400         1
        16        15        11        40     9      180.000000        0.124289         2
        16        15        11        40     9        0.000000        0.308842         3
        16        15        11        40     9      180.000000        0.285300         4
        16        15        14        43     9        0.000000       -0.090272         1
        16        15        14        43     9      180.000000        0.043313         2
        16        15        14        43     9        0.000000        0.181102         3
        16        15        14        43     9      180.000000        0.056845         4
        16        15        14        44     9        0.000000       -0.090272         1
        16        15        14        44     9      180.000000        0.043313         2
        16        15        14        44     9        0.000000        0.181102         3
        16        15        14        44     9      180.000000        0.056845         4
        17        13        12        41     9        0.000000        0.071282         1
        17        13        12        41     9      180.000000        0.076325         2
        17        13        12        41     9        0.000000        0.084134         3
        17        13        12        41     9      180.000000       -0.022120         4
        17        13        12        42     9        0.000000        0.071282         1
        17        13        12        42     9      180.000000        0.076325         2
        17        13        12        42     9        0.000000        0.084134         3
        17        13        12        42     9      180.000000       -0.022120         4
        17        13        14        43     9        0.000000        0.071281         1
        17        13        14        43     9      180.000000        0.076325         2
        17        13        14        43     9        0.000000        0.084133         3
        17        13        14        43     9      180.000000       -0.022120         4
        17        13        14        44     9        0.000000        0.071281         1
        17        13        14        44     9      180.000000        0.076325         2
        17        13        14        44     9        0.000000        0.084133         3
        17        13        14        44     9      180.000000       -0.022120         4
        17        19        20        21     9        0.000000        0.323763         1
        17        19        20        21     9      180.000000       17.639032         2
        17        19        20        21     9        0.000000        0.671040         3
        17        19        20        21     9      180.000000       -0.965029         4
        17        19        20        22     9        0.000000       -0.042703         1
        17        19        20        22     9      180.000000       12.507043         2
        17        19        20        22     9        0.000000        0.025809         3
        17        19        20        22     9      180.000000       -0.298713         4
        17        19        25        24     9        0.000000       -0.159485         1
        17        19        25        24     9      180.000000       11.728617         2
        17        19        25        24     9        0.000000       -0.307066         3
        17        19        25        24     9      180.000000       -0.206715         4
        17        19        25        26     9        0.000000       -0.058327         1
        17        19        25        26     9      180.000000       16.156169         2
        17        19        25        26     9        0.000000        0.341551         3
        17        19        25        26     9      180.000000       -0.901250         4
        18        17        19        20     9        0.000000       -1.941661         1
        18        17        19        20     9      180.000000        1.094345         2
        18        17        19        20     9        0.000000        0.427875         3
        18        17        19        20     9      180.000000       -0.033087         4
        18        17        19        25     9        0.000000       -5.069446         1
        18        17        19        25     9      180.000000        1.308677         2
        18        17        19        25     9        0.000000        0.034082         3
        18        17        19        25     9      180.000000       -0.013060         4
        19        20        22        23     9        0.000000       -0.230779         1
        19        20        22        23     9      180.000000       17.563438         2
        19        20        22        23     9        0.000000       -1.369842         3
        19        20        22        23     9      180.000000       -0.339553         4
        19        20        22        48     9        0.000000       -0.133924         1
        19        20        22        48     9      180.000000       13.166471         2
        19        20        22        48     9        0.000000       -0.700048         3
        19        20        22        48     9      180.000000        0.076451         4
        19        25        24        23     9        0.000000       -0.224893         1
        19        25        24        23     9      180.000000       17.844406         2
        19        25        24        23     9        0.000000       -1.762319         3
        19        25        24        23     9      180.000000       -0.293758         4
        19        25        24        50     9        0.000000        0.075314         1
        19        25        24        50     9      180.000000       13.789726         2
        19        25        24        50     9        0.000000       -0.664391         3
        19        25        24        50     9      180.000000        0.152451         4
        19        25        26        27     9        0.000000       -0.928394         1
        19        25        26        27     9      180.000000        3.806786         2
        19        25        26        27     9        0.000000        0.016176         3
        19        25        26        27     9      180.000000       -0.052316         4
        19        25        26        30     9        0.000000       -0.928394         1
        19        25        26        30     9      180.000000        3.806786         2
        19        25        26        30     9        0.000000        0.016176         3
        19        25        26        30     9      180.000000       -0.052316         4
        20        19        25        24     9        0.000000       -0.141325         1
        20        19        25        24     9      180.000000       16.126330         2
        20        19        25        24     9        0.000000       -1.429498         3
        20        19        25        24     9      180.000000       -0.178699         4
        20        19        25        26     9        0.000000        0.375258         1
        20        19        25        26     9      180.000000       18.126685         2
        20        19        25        26     9        0.000000        0.186440         3
        20        19        25        26     9      180.000000       -0.681470         4
        20        22        23        24     9        0.000000       -0.152374         1
        20        22        23        24     9      180.000000       18.716159         2
        20        22        23        24     9        0.000000       -1.818927         3
        20        22        23        24     9      180.000000       -0.453550         4
        20        22        23        49     9        0.000000        0.180905         1
        20        22        23        49     9      180.000000       14.902493         2
        20        22        23        49     9        0.000000       -0.731347         3
        20        22        23        49     9      180.000000        0.027321         4
        21        20        19        25     9        0.000000        0.673215         1
        21        20        19        25     9      180.000000       23.238171         2
        21        20        19        25     9        0.000000        0.955629         3
        21        20        19        25     9      180.000000       -1.163490         4
        21        20        22        23     9        0.000000        0.552801         1
        21        20        22        23     9      180.000000       23.768154         2
        21        20        22        23     9        0.000000        0.607966         3
        21        20        22        23     9      180.000000       -0.689434         4
        21        20        22        48     9        0.000000        0.278729         1
        21        20        22        48     9      180.000000       16.994412         2
        21        20        22        48     9        0.000000        0.338076         3
        21        20        22        48     9      180.000000        0.093222         4
        22        20        19        25     9        0.000000        0.135116         1
        22        20        19        25     9      180.000000       15.814503         2
        22        20        19        25     9        0.000000       -0.812439         3
        22        20        19        25     9      180.000000       -0.422734         4
        22        23        24        25     9        0.000000       -0.192714         1
        22        23        24        25     9      180.000000       18.408477         2
        22        23        24        25     9        0.000000       -1.779917         3
        22        23        24        25     9      180.000000       -0.374514         4
        22        23        24        50     9        0.000000        0.142296         1
        22        23        24        50     9      180.000000       15.187280         2
        22        23        24        50     9        0.000000       -0.758856         3
        22        23        24        50     9      180.000000        0.063922         4
        23        24        25        26     9        0.000000        0.358636         1
        23        24        25        26     9      180.000000       18.702790         2
        23        24        25        26     9        0.000000        0.139137         3
        23        24        25        26     9      180.000000       -0.377297         4
        24        23        22        48     9        0.000000        0.246067         1
        24        23        22        48     9      180.000000       14.028888         2
        24        23        22        48     9        0.000000       -0.660950         3
        24        23        22        48     9      180.000000        0.116191         4
        24        25        26        27     9        0.000000        0.756737         1
        24        25        26        27     9      180.000000        3.189610         2
        24        25        26        27     9        0.000000       -0.349349         3
        24        25        26        27     9      180.000000        0.086097         4
        24        25        26        30     9        0.000000        0.756737         1
        24        25        26        30     9      180.000000        3.189610         2
        24        25        26        30     9        0.000000       -0.349349         3
        24        25        26        30     9      180.000000        0.086097         4
        25        24        23        49     9        0.000000        0.014670         1
        25        24        23        49     9      180.000000       14.765854         2
        25        24        23        49     9        0.000000       -0.786746         3
        25        24        23        49     9      180.000000        0.015738         4
        25        26        27        28     9        0.000000        0.775624         1
        25        26        27        28     9      180.000000       14.213466         2
        25        26        27        28     9        0.000000        0.460130         3
        25        26        27        28     9      180.000000       -0.178471         4
        25        26        30        29     9        0.000000        0.775624         1
        25        26        30        29     9      180.000000       14.213466         2
        25        26        30        29     9        0.000000        0.460130         3
        25        26        30        29     9      180.000000       -0.178471         4
        26        25        24        50     9        0.000000        0.319830         1
        26        25        24        50     9      180.000000       14.602055         2
        26        25        24        50     9        0.000000        0.000376         3
        26        25        24        50     9      180.000000        0.144391         4
        26        27        28        29     9        0.000000       -0.095083         1
        26        27        28        29     9      180.000000       41.109451         2
        26        27        28        29     9        0.000000       -5.890197         3
        26        27        28        29     9      180.000000       -0.007891         4
        26        27        28        51     9        0.000000        1.230246         1
        26        27        28        51     9      180.000000       26.477525         2
        26        27        28        51     9        0.000000       -0.131285         3
        26        27        28        51     9      180.000000       -0.123740         4
        26        30        29        28     9        0.000000       -0.095083         1
        26        30        29        28     9      180.000000       41.109451         2
        26        30        29        28     9        0.000000       -5.890197         3
        26        30        29        28     9      180.000000       -0.007891         4
        26        30        29        52     9        0.000000        1.230246         1
        26        30        29        52     9      180.000000       26.477525         2
        26        30        29        52     9        0.000000       -0.131285         3
        26        30        29        52     9      180.000000       -0.123740         4
        27        26        30        29     9        0.000000       -0.214504         1
        27        26        30        29     9      180.000000       33.461254         2
        27        26        30        29     9        0.000000       -5.627568         3
        27        26        30        29     9      180.000000        0.135267         4
        27        28        29        30     9        0.000000       -0.646396         1
        27        28        29        30     9      180.000000       33.879564         2
        27        28        29        30     9        0.000000       -7.997882         3
        27        28        29        30     9      180.000000       -0.068922         4
        27        28        29        52     9        0.000000        0.399471         1
        27        28        29        52     9      180.000000       15.777787         2
        27        28        29        52     9        0.000000       -0.622625         3
        27        28        29        52     9      180.000000       -0.473181         4
        28        27        26        30     9        0.000000       -0.214504         1
        28        27        26        30     9      180.000000       33.461254         2
        28        27        26        30     9        0.000000       -5.627568         3
        28        27        26        30     9      180.000000        0.135267         4
        30        29        28        51     9        0.000000        0.399471         1
        30        29        28        51     9      180.000000       15.777787         2
        30        29        28        51     9        0.000000       -0.622625         3
        30        29        28        51     9      180.000000       -0.473181         4
        38        10        11        40     9        0.000000       -0.140740         1
        38        10        11        40     9      180.000000       -0.009946         2
        38        10        11        40     9        0.000000        0.295617         3
        38        10        11        40     9      180.000000       -0.018107         4
        39        10        11        40     9        0.000000       -0.140740         1
        39        10        11        40     9      180.000000       -0.009946         2
        39        10        11        40     9        0.000000        0.295617         3
        39        10        11        40     9      180.000000       -0.018107         4
        40        11        12        41     9        0.000000       -0.086595         1
        40        11        12        41     9      180.000000        0.026399         2
        40        11        12        41     9        0.000000        0.269152         3
        40        11        12        41     9      180.000000       -0.020189         4
        40        11        12        42     9        0.000000       -0.086595         1
        40        11        12        42     9      180.000000        0.026399         2
        40        11        12        42     9        0.000000        0.269152         3
        40        11        12        42     9      180.000000       -0.020189         4
        40        11        15        45     9        0.000000        0.223574         1
        40        11        15        45     9      180.000000       -0.077956         2
        40        11        15        45     9        0.000000        0.353694         3
        40        11        15        45     9      180.000000       -0.057173         4
        43        14        15        45     9        0.000000       -0.086595         1
        43        14        15        45     9      180.000000        0.026398         2
        43        14        15        45     9        0.000000        0.269152         3
        43        14        15        45     9      180.000000       -0.020189         4
        44        14        15        45     9        0.000000       -0.086595         1
        44        14        15        45     9      180.000000        0.026398         2
        44        14        15        45     9        0.000000        0.269152         3
        44        14        15        45     9      180.000000       -0.020189         4
        45        15        16        46     9        0.000000       -0.140741         1
        45        15        16        46     9      180.000000       -0.009947         2
        45        15        16        46     9        0.000000        0.295617         3
        45        15        16        46     9      180.000000       -0.018107         4
        45        15        16        47     9        0.000000       -0.140741         1
        45        15        16        47     9      180.000000       -0.009947         2
        45        15        16        47     9        0.000000        0.295617         3
        45        15        16        47     9      180.000000       -0.018107         4
        48        22        23        49     9        0.000000       -0.176698         1
        48        22        23        49     9      180.000000       10.882745         2
        48        22        23        49     9        0.000000       -0.527182         3
        48        22        23        49     9      180.000000        0.131688         4
        49        23        24        50     9        0.000000       -0.152786         1
        49        23        24        50     9      180.000000       12.297011         2
        49        23        24        50     9        0.000000       -0.885313         3
        49        23        24        50     9      180.000000        0.289530         4
        51        28        29        52     9        0.000000       -0.304766         1
        51        28        29        52     9      180.000000        8.321253         2
        51        28        29        52     9        0.000000       -0.141498         3
        51        28        29        52     9      180.000000        0.273252         4

[ dihedrals ] ; impropers
;       ai        aj        ak        al funct           phase               k        pn
         3         2         4        34     4      180.000000        9.345749         2
         3         4        34         2     4      180.000000        9.345749         2
         3        34         2         4     4      180.000000        9.345749         2
         5         4         6         9     4      180.000000       27.893333         2
         5         6         9         4     4      180.000000       27.893333         2
         5         9         4         6     4      180.000000       27.893333         2
         7         2         6         8     4      180.000000       14.297908         2
         7         6         8         2     4      180.000000       14.297908         2
         7         8         2         6     4      180.000000       14.297908         2
        22        20        23        48     4      180.000000        0.307014         2
        22        23        48        20     4      180.000000        0.307014         2
        22        48        20        23     4      180.000000        0.307014         2
        23        22        24        49     4      180.000000        2.050246         2
        23        24        49        22     4      180.000000        2.050246         2
        23        49        22        24     4      180.000000        2.050246         2
        24        23        25        50     4      180.000000        0.161180         2
        24        25        50        23     4      180.000000        0.161180         2
        24        50        23        25     4      180.000000        0.161180         2

[ pairs ]
;       ai        aj funct
         1         4     1
         1         6     1
         1         8     1
         1        34     1
         2         5     1
         2        35     1
         2        36     1
         2        37     1
         3         6     1
         3         8     1
         3         9     1
         3        31     1
         3        32     1
         3        33     1
         4         7     1
         4        10     1
         4        16     1
         5         8     1
         5        11     1
         5        15     1
         5        34     1
         5        38     1
         5        39     1
         5        46     1
         5        47     1
         6        10     1
         6        16     1
         6        35     1
         6        36     1
         6        37     1
         7         9     1
         7        31     1
         7        32     1
         7        33     1
         7        34     1
         9        12     1
         9        14     1
         9        40     1
         9        45     1
        10        13     1
        10        14     1
        10        41     1
        10        42     1
        10        45     1
        10        46     1
        10        47     1
        11        17     1
        11        43     1
        11        44     1
        11        46     1
        11        47     1
        12        16     1
        12        18     1
        12        19     1
        12        38     1
        12        39     1
        12        43     1
        12        44     1
        12        45     1
        13        16     1
        13        20     1
        13        25     1
        13        40     1
        13        45     1
        14        18     1
        14        19     1
        14        40     1
        14        41     1
        14        42     1
        14        46     1
        14        47     1
        15        17     1
        15        38     1
        15        39     1
        15        41     1
        15        42     1
        16        38     1
        16        39     1
        16        40     1
        16        43     1
        16        44     1
        17        21     1
        17        22     1
        17        24     1
        17        26     1
        17        41     1
        17        42     1
        17        43     1
        17        44     1
        18        20     1
        18        25     1
        19        23     1
        19        27     1
        19        30     1
        19        48     1
        19        50     1
        20        24     1
        20        26     1
        20        49     1
        21        23     1
        21        25     1
        21        48     1
        22        25     1
        22        50     1
        23        26     1
        24        27     1
        24        30     1
        24        48     1
        25        28     1
        25        29     1
        25        49     1
        26        50     1
        26        51     1
        26        52     1
        27        52     1
        30        51     1
        38        40     1
        39        40     1
        40        41     1
        40        42     1
        40        45     1
        43        45     1
        44        45     1
        45        46     1
        45        47     1
        48        49     1
        49        50     1
        51        52     1
