; ITP file created by ByteFF-ML, 2025-12-06 04:39:30.044054

[ atomtypes ]
;name           bonded.type        at.num        mass        charge   ptype           sigma         epsilon
 c0bf                                   6      0.0000       0.00000       A     3.39813e-01     4.50976e-01
 c1bf                                   6      0.0000       0.00000       A     3.31356e-01     4.11183e-01
 c2bf                                   6      0.0000       0.00000       A     3.31508e-01     4.12834e-01
 c3bf                                   6      0.0000       0.00000       A     3.31356e-01     4.11183e-01
 c4bf                                   6      0.0000       0.00000       A     3.39813e-01     4.50976e-01
 n5bf                                   7      0.0000       0.00000       A     3.38255e-01     3.94373e-01
 c6bf                                   6      0.0000       0.00000       A     3.31548e-01     4.12659e-01
 n7bf                                   7      0.0000       0.00000       A     3.38255e-01     3.94373e-01
 n8bf                                   7      0.0000       0.00000       A     3.19428e-01     8.94136e-01
 c9bf                                   6      0.0000       0.00000       A     3.39585e-01     4.49212e-01
 c10bf                                  6      0.0000       0.00000       A     3.39712e-01     4.49806e-01
 c11bf                                  6      0.0000       0.00000       A     3.39727e-01     4.50797e-01
 n12bf                                  7      0.0000       0.00000       A     3.18298e-01     6.80765e-01
 c13bf                                  6      0.0000       0.00000       A     3.39727e-01     4.50797e-01
 c14bf                                  6      0.0000       0.00000       A     3.39712e-01     4.49806e-01
 c15bf                                  6      0.0000       0.00000       A     3.39585e-01     4.49212e-01
 c16bf                                  6      0.0000       0.00000       A     3.31368e-01     4.13224e-01
 o17bf                                  8      0.0000       0.00000       A     3.04699e-01     6.14314e-01
 c18bf                                  6      0.0000       0.00000       A     3.31600e-01     4.11246e-01
 c19bf                                  6      0.0000       0.00000       A     3.31554e-01     4.12161e-01
 c20bf                                  6      0.0000       0.00000       A     3.39800e-01     4.50733e-01
 c21bf                                  6      0.0000       0.00000       A     3.31475e-01     4.12646e-01
 c22bf                                  6      0.0000       0.00000       A     3.31482e-01     4.12860e-01
 c23bf                                  6      0.0000       0.00000       A     3.31443e-01     4.11219e-01
 c24bf                                  6      0.0000       0.00000       A     3.31547e-01     4.13918e-01
 n25bf                                  7      0.0000       0.00000       A     3.20879e-01     8.47395e-01
 n26bf                                  7      0.0000       0.00000       A     3.38251e-01     3.94826e-01
 c27bf                                  6      0.0000       0.00000       A     3.31301e-01     4.12308e-01
 c28bf                                  6      0.0000       0.00000       A     3.31301e-01     4.12308e-01
 n29bf                                  7      0.0000       0.00000       A     3.38251e-01     3.94826e-01
 h30bf                                  1      0.0000       0.00000       A     2.59989e-01     8.71151e-02
 h31bf                                  1      0.0000       0.00000       A     2.59989e-01     8.71151e-02
 h32bf                                  1      0.0000       0.00000       A     2.59989e-01     8.71151e-02
 h33bf                                  1      0.0000       0.00000       A     2.62556e-01     6.77132e-02
 h34bf                                  1      0.0000       0.00000       A     2.59989e-01     8.71151e-02
 h35bf                                  1      0.0000       0.00000       A     2.59989e-01     8.71151e-02
 h36bf                                  1      0.0000       0.00000       A     2.59989e-01     8.71151e-02
 h37bf                                  1      0.0000       0.00000       A     2.42127e-01     8.72842e-02
 h38bf                                  1      0.0000       0.00000       A     2.42127e-01     8.72842e-02
 h39bf                                  1      0.0000       0.00000       A     2.60149e-01     8.67575e-02
 h40bf                                  1      0.0000       0.00000       A     2.42171e-01     8.72571e-02
 h41bf                                  1      0.0000       0.00000       A     2.42171e-01     8.72571e-02
 h42bf                                  1      0.0000       0.00000       A     2.42171e-01     8.72571e-02
 h43bf                                  1      0.0000       0.00000       A     2.42171e-01     8.72571e-02
 h44bf                                  1      0.0000       0.00000       A     2.60149e-01     8.67575e-02
 h45bf                                  1      0.0000       0.00000       A     2.42127e-01     8.72842e-02
 h46bf                                  1      0.0000       0.00000       A     2.42127e-01     8.72842e-02
 h47bf                                  1      0.0000       0.00000       A     2.60031e-01     8.73273e-02
 h48bf                                  1      0.0000       0.00000       A     2.60031e-01     8.73273e-02
 h49bf                                  1      0.0000       0.00000       A     2.60031e-01     8.73273e-02
 h50bf                                  1      0.0000       0.00000       A     2.62472e-01     6.72504e-02
 h51bf                                  1      0.0000       0.00000       A     2.62509e-01     6.73669e-02
 h52bf                                  1      0.0000       0.00000       A     2.62555e-01     6.79734e-02
 h53bf                                  1      0.0000       0.00000       A     2.53896e-01     6.74946e-02
 h54bf                                  1      0.0000       0.00000       A     2.53896e-01     6.74946e-02

[ moleculetype ]
;name             nrexcl
 set_2_20              3

[ atoms ]
;       nr            type      resi   res      atom      cgnr      charge          mass ; qtot
         1            c0bf         1   UNL        c0         1    -0.15050       12.0110 ; qtot   -0.150
         2            c1bf         1   UNL        c1         2     0.16283       12.0110 ; qtot    0.012
         3            c2bf         1   UNL        c2         3    -0.27614       12.0110 ; qtot   -0.264
         4            c3bf         1   UNL        c3         4     0.16283       12.0110 ; qtot   -0.101
         5            c4bf         1   UNL        c4         5    -0.15050       12.0110 ; qtot   -0.251
         6            n5bf         1   UNL        n5         6    -0.25087       14.0070 ; qtot   -0.502
         7            c6bf         1   UNL        c6         7     0.38591       12.0110 ; qtot   -0.116
         8            n7bf         1   UNL        n7         8    -0.25087       14.0070 ; qtot   -0.367
         9            n8bf         1   UNL        n8         9    -0.78178       14.0070 ; qtot   -1.149
        10            c9bf         1   UNL        c9        10     0.23669       12.0110 ; qtot   -0.912
        11           c10bf         1   UNL       c10        11    -0.10223       12.0110 ; qtot   -1.015
        12           c11bf         1   UNL       c11        12     0.11062       12.0110 ; qtot   -0.904
        13           n12bf         1   UNL       n12        13    -0.41214       14.0070 ; qtot   -1.316
        14           c13bf         1   UNL       c13        14     0.11062       12.0110 ; qtot   -1.206
        15           c14bf         1   UNL       c14        15    -0.10223       12.0110 ; qtot   -1.308
        16           c15bf         1   UNL       c15        16     0.23669       12.0110 ; qtot   -1.071
        17           c16bf         1   UNL       c16        17     0.63066       12.0110 ; qtot   -0.440
        18           o17bf         1   UNL       o17        18    -0.59123       15.9990 ; qtot   -1.032
        19           c18bf         1   UNL       c18        19    -0.12581       12.0110 ; qtot   -1.157
        20           c19bf         1   UNL       c19        20    -0.02936       12.0110 ; qtot   -1.187
        21           c20bf         1   UNL       c20        21    -0.05352       12.0110 ; qtot   -1.240
        22           c21bf         1   UNL       c21        22    -0.11304       12.0110 ; qtot   -1.353
        23           c22bf         1   UNL       c22        23    -0.09089       12.0110 ; qtot   -1.444
        24           c23bf         1   UNL       c23        24    -0.10010       12.0110 ; qtot   -1.544
        25           c24bf         1   UNL       c24        25     0.05254       12.0110 ; qtot   -1.492
        26           n25bf         1   UNL       n25        26     0.31113       14.0070 ; qtot   -1.181
        27           n26bf         1   UNL       n26        27    -0.47931       14.0070 ; qtot   -1.660
        28           c27bf         1   UNL       c27        28     0.20629       12.0110 ; qtot   -1.454
        29           c28bf         1   UNL       c28        29     0.20629       12.0110 ; qtot   -1.247
        30           n29bf         1   UNL       n29        30    -0.47931       14.0070 ; qtot   -1.727
        31           h30bf         1   UNL       h30        31     0.05717        1.0080 ; qtot   -1.670
        32           h31bf         1   UNL       h31        32     0.05717        1.0080 ; qtot   -1.612
        33           h32bf         1   UNL       h32        33     0.05717        1.0080 ; qtot   -1.555
        34           h33bf         1   UNL       h33        34     0.13105        1.0080 ; qtot   -1.424
        35           h34bf         1   UNL       h34        35     0.05717        1.0080 ; qtot   -1.367
        36           h35bf         1   UNL       h35        36     0.05717        1.0080 ; qtot   -1.310
        37           h36bf         1   UNL       h36        37     0.05717        1.0080 ; qtot   -1.253
        38           h37bf         1   UNL       h37        38     0.05798        1.0080 ; qtot   -1.195
        39           h38bf         1   UNL       h38        39     0.05798        1.0080 ; qtot   -1.137
        40           h39bf         1   UNL       h39        40     0.07208        1.0080 ; qtot   -1.065
        41           h40bf         1   UNL       h40        41     0.06015        1.0080 ; qtot   -1.004
        42           h41bf         1   UNL       h41        42     0.06015        1.0080 ; qtot   -0.944
        43           h42bf         1   UNL       h42        43     0.06015        1.0080 ; qtot   -0.884
        44           h43bf         1   UNL       h43        44     0.06015        1.0080 ; qtot   -0.824
        45           h44bf         1   UNL       h44        45     0.07208        1.0080 ; qtot   -0.752
        46           h45bf         1   UNL       h45        46     0.05798        1.0080 ; qtot   -0.694
        47           h46bf         1   UNL       h46        47     0.05798        1.0080 ; qtot   -0.636
        48           h47bf         1   UNL       h47        48     0.04918        1.0080 ; qtot   -0.587
        49           h48bf         1   UNL       h48        49     0.04918        1.0080 ; qtot   -0.538
        50           h49bf         1   UNL       h49        50     0.04918        1.0080 ; qtot   -0.488
        51           h50bf         1   UNL       h50        51     0.11731        1.0080 ; qtot   -0.371
        52           h51bf         1   UNL       h51        52     0.12010        1.0080 ; qtot   -0.251
        53           h52bf         1   UNL       h52        53     0.13852        1.0080 ; qtot   -0.113
        54           h53bf         1   UNL       h53        54     0.05626        1.0080 ; qtot   -0.056
        55           h54bf         1   UNL       h54        55     0.05625        1.0080 ; qtot    0.000

[ bonds ]
;       ai        aj funct               r               k
         1         2     1        0.150694   207469.745923
         1        31     1        0.109354   305309.983691
         1        32     1        0.109354   305309.983691
         1        33     1        0.109354   305309.983691
         2         3     1        0.140051   285005.555713
         2         8     1        0.133745   333057.585254
         3         4     1        0.140051   285005.555713
         3        34     1        0.108514   321723.577686
         4         5     1        0.150694   207469.745923
         4         6     1        0.133745   333057.585254
         5        35     1        0.109354   305309.983691
         5        36     1        0.109354   305309.983691
         5        37     1        0.109354   305309.983691
         6         7     1        0.135061   255154.794434
         7         8     1        0.135061   255154.794434
         7         9     1        0.136150   322423.090186
         9        10     1        0.146885   181060.582568
         9        16     1        0.146885   181060.557031
        10        11     1        0.153334   175036.020947
        10        38     1        0.109481   294444.786377
        10        39     1        0.109481   294444.786377
        11        12     1        0.153427   175080.787500
        11        15     1        0.154277   149842.130322
        11        40     1        0.109325   303915.912891
        12        13     1        0.147278   176896.603662
        12        41     1        0.109385   298254.744336
        12        42     1        0.109385   298254.744336
        13        14     1        0.147278   176896.603662
        13        17     1        0.135778   313156.669141
        14        15     1        0.153427   175080.787500
        14        43     1        0.109385   298254.744336
        14        44     1        0.109385   298254.744336
        15        16     1        0.153334   175036.020947
        15        45     1        0.109325   303915.912891
        16        46     1        0.109481   294444.811914
        16        47     1        0.109481   294444.811914
        17        18     1        0.123494   589782.401172
        17        19     1        0.151320   180900.158447
        19        20     1        0.140842   272137.023242
        19        25     1        0.140514   273832.074414
        20        21     1        0.151170   203021.372998
        20        22     1        0.140112   294157.212988
        21        48     1        0.109354   301371.446387
        21        49     1        0.109354   301371.446387
        21        50     1        0.109354   301371.446387
        22        23     1        0.139709   307629.979004
        22        51     1        0.108675   316567.941748
        23        24     1        0.139358   321067.912402
        23        52     1        0.108593   320793.439551
        24        25     1        0.139811   297103.914502
        24        53     1        0.108409   325632.262109
        25        26     1        0.142393   229158.783203
        26        27     1        0.134018   245180.152734
        26        30     1        0.134018   245180.127197
        27        28     1        0.133423   350873.498535
        28        29     1        0.141148   279463.543311
        28        54     1        0.108128   339085.415625
        29        30     1        0.133423   350873.498535
        29        55     1        0.108128   339085.415625

[ angles ]
;       ai        aj        ak funct           theta             cth
         1         2         3     1      122.040428      489.957279
         1         2         8     1      116.354942      475.838226
         2         1        31     1      110.547607      500.572608
         2         1        32     1      110.547607      500.572608
         2         1        33     1      110.547607      500.572608
         2         3         4     1      117.478683      761.775612
         2         3        34     1      121.294067      418.995525
         2         8         7     1      116.614647      960.079055
         3         2         8     1      121.655540      736.540159
         3         4         5     1      122.040428      489.957279
         3         4         6     1      121.655540      736.540159
         4         3        34     1      121.294067      418.995525
         4         5        35     1      110.547607      500.572608
         4         5        36     1      110.547607      500.572608
         4         5        37     1      110.547607      500.572608
         4         6         7     1      116.614647      960.079055
         5         4         6     1      116.354942      475.838226
         6         7         8     1      126.191666      604.351846
         6         7         9     1      116.861961      541.920764
         7         9        10     1      122.793289      492.092852
         7         9        16     1      122.793289      492.092852
         8         7         9     1      116.861961      541.920764
         9        10        11     1      102.892921      518.507927
         9        10        38     1      110.665466      411.334967
         9        10        39     1      110.665466      411.334967
         9        16        15     1      102.892921      518.507927
         9        16        46     1      110.665466      411.334967
         9        16        47     1      110.665466      411.334999
        10         9        16     1      113.053551      339.130642
        10        11        12     1      115.967918      490.766039
        10        11        15     1      103.531944      553.400524
        10        11        40     1      110.411415      471.837231
        11        10        38     1      112.134521      456.886371
        11        10        39     1      112.134521      456.886371
        11        12        13     1      103.342247      529.082365
        11        12        41     1      112.216675      453.127085
        11        12        42     1      112.216675      453.127085
        11        15        14     1      103.849327      536.391532
        11        15        16     1      103.531944      553.400524
        11        15        45     1      111.068626      475.836438
        12        11        15     1      103.849327      536.391532
        12        11        40     1      110.495773      465.529246
        12        13        14     1      111.560623      401.696081
        12        13        17     1      123.714920      463.751001
        13        12        41     1      110.437607      437.637296
        13        12        42     1      110.437607      437.637296
        13        14        15     1      103.342262      529.082333
        13        14        43     1      110.437607      437.637360
        13        14        44     1      110.437607      437.637360
        13        17        18     1      122.904282      642.649146
        13        17        19     1      116.376114      450.359341
        14        13        17     1      123.714920      463.751001
        14        15        16     1      115.967918      490.766039
        14        15        45     1      110.495773      465.529246
        15        11        40     1      111.068642      475.836438
        15        14        43     1      112.216675      453.127085
        15        14        44     1      112.216675      453.127085
        15        16        46     1      112.134521      456.886371
        15        16        47     1      112.134521      456.886371
        16        15        45     1      110.411415      471.837167
        17        19        20     1      119.106850      595.608833
        17        19        25     1      121.660294      576.094779
        18        17        19     1      120.502396      511.803063
        19        20        21     1      120.887741      396.829666
        19        20        22     1      118.668045      734.682526
        19        25        24     1      121.287033      656.261958
        19        25        26     1      120.074524      444.497553
        20        19        25     1      119.340469      715.138785
        20        21        48     1      111.083328      478.422103
        20        21        49     1      111.083328      478.422103
        20        21        50     1      111.083328      478.422103
        20        22        23     1      121.122154      699.756762
        20        22        51     1      119.263245      387.344417
        21        20        22     1      120.343704      463.865855
        22        23        24     1      119.972656      723.273567
        22        23        52     1      120.097801      431.259211
        23        22        51     1      119.729393      423.409711
        23        24        25     1      119.041641      680.641470
        23        24        53     1      121.457840      421.183992
        24        23        52     1      119.887962      435.995643
        24        25        26     1      118.162720      546.041495
        25        24        53     1      119.250931      420.504449
        25        26        27     1      122.039917      520.837326
        25        26        30     1      122.039917      520.837358
        26        27        28     1      103.760788      481.231919
        26        30        29     1      103.760788      481.231919
        27        26        30     1      114.996567      212.090338
        27        28        29     1      108.709312      295.765725
        27        28        54     1      120.742882      391.074016
        28        29        30     1      108.709312      295.765693
        28        29        55     1      130.286758      343.611766
        29        28        54     1      130.286758      343.611734
        30        29        55     1      120.742882      391.074016
        31         1        32     1      108.389893      359.969498
        31         1        33     1      108.389893      359.969498
        32         1        33     1      108.389893      359.969498
        35         5        36     1      108.389893      359.969498
        35         5        37     1      108.389893      359.969498
        36         5        37     1      108.389893      359.969498
        38        10        39     1      107.788414      347.454335
        41        12        42     1      107.816490      348.007916
        43        14        44     1      107.816490      348.007948
        46        16        47     1      107.788414      347.454335
        48        21        49     1      107.732529      359.395615
        48        21        50     1      107.732529      359.395615
        49        21        50     1      107.732529      359.395615

[ dihedrals ] ; propers for gromacs 4.5 or higher, use funct 9
;       ai        aj        ak        al funct           phase               k        pn
         1         2         3         4     9        0.000000        0.256556         1
         1         2         3         4     9      180.000000       13.179428         2
         1         2         3         4     9        0.000000       -0.097633         3
         1         2         3         4     9      180.000000       -0.317869         4
         1         2         3        34     9        0.000000       -0.223957         1
         1         2         3        34     9      180.000000       11.375068         2
         1         2         3        34     9        0.000000       -0.534831         3
         1         2         3        34     9      180.000000        0.134009         4
         1         2         8         7     9        0.000000       -0.024262         1
         1         2         8         7     9      180.000000       17.595210         2
         1         2         8         7     9        0.000000        0.133711         3
         1         2         8         7     9      180.000000       -0.526295         4
         2         3         4         5     9        0.000000        0.256556         1
         2         3         4         5     9      180.000000       13.179428         2
         2         3         4         5     9        0.000000       -0.097633         3
         2         3         4         5     9      180.000000       -0.317869         4
         2         3         4         6     9        0.000000       -0.062248         1
         2         3         4         6     9      180.000000       14.568157         2
         2         3         4         6     9        0.000000       -0.276619         3
         2         3         4         6     9      180.000000       -0.509287         4
         2         8         7         6     9        0.000000        0.513201         1
         2         8         7         6     9      180.000000        9.191428         2
         2         8         7         6     9        0.000000        0.738957         3
         2         8         7         6     9      180.000000       -0.519149         4
         2         8         7         9     9        0.000000        1.229502         1
         2         8         7         9     9      180.000000       16.103329         2
         2         8         7         9     9        0.000000        0.664456         3
         2         8         7         9     9      180.000000       -1.018199         4
         3         2         1        31     9        0.000000       -0.025287         1
         3         2         1        31     9      180.000000       -0.035803         2
         3         2         1        31     9        0.000000       -0.089579         3
         3         2         1        31     9      180.000000        0.005712         4
         3         2         1        32     9        0.000000       -0.025287         1
         3         2         1        32     9      180.000000       -0.035803         2
         3         2         1        32     9        0.000000       -0.089579         3
         3         2         1        32     9      180.000000        0.005712         4
         3         2         1        33     9        0.000000       -0.025287         1
         3         2         1        33     9      180.000000       -0.035803         2
         3         2         1        33     9        0.000000       -0.089579         3
         3         2         1        33     9      180.000000        0.005712         4
         3         2         8         7     9        0.000000       -0.379284         1
         3         2         8         7     9      180.000000       19.341467         2
         3         2         8         7     9        0.000000       -1.106329         3
         3         2         8         7     9      180.000000       -0.500796         4
         3         4         5        35     9        0.000000       -0.025287         1
         3         4         5        35     9      180.000000       -0.035803         2
         3         4         5        35     9        0.000000       -0.089579         3
         3         4         5        35     9      180.000000        0.005712         4
         3         4         5        36     9        0.000000       -0.025287         1
         3         4         5        36     9      180.000000       -0.035803         2
         3         4         5        36     9        0.000000       -0.089579         3
         3         4         5        36     9      180.000000        0.005712         4
         3         4         5        37     9        0.000000       -0.025287         1
         3         4         5        37     9      180.000000       -0.035803         2
         3         4         5        37     9        0.000000       -0.089579         3
         3         4         5        37     9      180.000000        0.005712         4
         3         4         6         7     9        0.000000       -0.379284         1
         3         4         6         7     9      180.000000       19.341467         2
         3         4         6         7     9        0.000000       -1.106329         3
         3         4         6         7     9      180.000000       -0.500796         4
         4         3         2         8     9        0.000000       -0.062248         1
         4         3         2         8     9      180.000000       14.568157         2
         4         3         2         8     9        0.000000       -0.276619         3
         4         3         2         8     9      180.000000       -0.509287         4
         4         6         7         8     9        0.000000        0.513201         1
         4         6         7         8     9      180.000000        9.191428         2
         4         6         7         8     9        0.000000        0.738957         3
         4         6         7         8     9      180.000000       -0.519149         4
         4         6         7         9     9        0.000000        1.229502         1
         4         6         7         9     9      180.000000       16.103329         2
         4         6         7         9     9        0.000000        0.664456         3
         4         6         7         9     9      180.000000       -1.018199         4
         5         4         3        34     9        0.000000       -0.223957         1
         5         4         3        34     9      180.000000       11.375068         2
         5         4         3        34     9        0.000000       -0.534831         3
         5         4         3        34     9      180.000000        0.134009         4
         5         4         6         7     9        0.000000       -0.024262         1
         5         4         6         7     9      180.000000       17.595210         2
         5         4         6         7     9        0.000000        0.133711         3
         5         4         6         7     9      180.000000       -0.526295         4
         6         4         3        34     9        0.000000       -0.034010         1
         6         4         3        34     9      180.000000       12.223298         2
         6         4         3        34     9        0.000000       -0.267637         3
         6         4         3        34     9      180.000000       -0.072661         4
         6         4         5        35     9        0.000000        0.003881         1
         6         4         5        35     9      180.000000       -0.062736         2
         6         4         5        35     9        0.000000        0.023445         3
         6         4         5        35     9      180.000000       -0.007650         4
         6         4         5        36     9        0.000000        0.003881         1
         6         4         5        36     9      180.000000       -0.062736         2
         6         4         5        36     9        0.000000        0.023445         3
         6         4         5        36     9      180.000000       -0.007650         4
         6         4         5        37     9        0.000000        0.003881         1
         6         4         5        37     9      180.000000       -0.062736         2
         6         4         5        37     9        0.000000        0.023445         3
         6         4         5        37     9      180.000000       -0.007650         4
         6         7         9        10     9        0.000000        0.747629         1
         6         7         9        10     9      180.000000        9.366862         2
         6         7         9        10     9        0.000000       -0.095722         3
         6         7         9        10     9      180.000000       -1.018207         4
         6         7         9        16     9        0.000000        0.747628         1
         6         7         9        16     9      180.000000        9.366863         2
         6         7         9        16     9        0.000000       -0.095722         3
         6         7         9        16     9      180.000000       -1.018207         4
         7         9        10        11     9        0.000000       -3.777482         1
         7         9        10        11     9      180.000000       -0.445033         2
         7         9        10        11     9        0.000000        0.410579         3
         7         9        10        11     9      180.000000        0.178916         4
         7         9        10        38     9        0.000000       -0.010161         1
         7         9        10        38     9      180.000000       -0.080809         2
         7         9        10        38     9        0.000000        0.536714         3
         7         9        10        38     9      180.000000       -0.022063         4
         7         9        10        39     9        0.000000       -0.010161         1
         7         9        10        39     9      180.000000       -0.080809         2
         7         9        10        39     9        0.000000        0.536714         3
         7         9        10        39     9      180.000000       -0.022063         4
         7         9        16        15     9        0.000000       -3.777482         1
         7         9        16        15     9      180.000000       -0.445032         2
         7         9        16        15     9        0.000000        0.410579         3
         7         9        16        15     9      180.000000        0.178916         4
         7         9        16        46     9        0.000000       -0.010160         1
         7         9        16        46     9      180.000000       -0.080811         2
         7         9        16        46     9        0.000000        0.536714         3
         7         9        16        46     9      180.000000       -0.022063         4
         7         9        16        47     9        0.000000       -0.010160         1
         7         9        16        47     9      180.000000       -0.080811         2
         7         9        16        47     9        0.000000        0.536714         3
         7         9        16        47     9      180.000000       -0.022063         4
         8         2         1        31     9        0.000000        0.003881         1
         8         2         1        31     9      180.000000       -0.062736         2
         8         2         1        31     9        0.000000        0.023445         3
         8         2         1        31     9      180.000000       -0.007650         4
         8         2         1        32     9        0.000000        0.003881         1
         8         2         1        32     9      180.000000       -0.062736         2
         8         2         1        32     9        0.000000        0.023445         3
         8         2         1        32     9      180.000000       -0.007650         4
         8         2         1        33     9        0.000000        0.003881         1
         8         2         1        33     9      180.000000       -0.062736         2
         8         2         1        33     9        0.000000        0.023445         3
         8         2         1        33     9      180.000000       -0.007650         4
         8         2         3        34     9        0.000000       -0.034010         1
         8         2         3        34     9      180.000000       12.223298         2
         8         2         3        34     9        0.000000       -0.267637         3
         8         2         3        34     9      180.000000       -0.072661         4
         8         7         9        10     9        0.000000        0.747629         1
         8         7         9        10     9      180.000000        9.366862         2
         8         7         9        10     9        0.000000       -0.095722         3
         8         7         9        10     9      180.000000       -1.018207         4
         8         7         9        16     9        0.000000        0.747628         1
         8         7         9        16     9      180.000000        9.366863         2
         8         7         9        16     9        0.000000       -0.095722         3
         8         7         9        16     9      180.000000       -1.018207         4
         9        10        11        12     9        0.000000        0.141091         1
         9        10        11        12     9      180.000000       -1.554592         2
         9        10        11        12     9        0.000000        0.129275         3
         9        10        11        12     9      180.000000        0.187854         4
         9        10        11        15     9        0.000000       -3.183876         1
         9        10        11        15     9      180.000000       11.770762         2
         9        10        11        15     9        0.000000       -0.669596         3
         9        10        11        15     9      180.000000       -2.371235         4
         9        10        11        40     9        0.000000        3.046272         1
         9        10        11        40     9      180.000000       -0.789547         2
         9        10        11        40     9        0.000000       -0.188589         3
         9        10        11        40     9      180.000000        0.438256         4
         9        16        15        11     9        0.000000       -3.183875         1
         9        16        15        11     9      180.000000       11.770769         2
         9        16        15        11     9        0.000000       -0.669596         3
         9        16        15        11     9      180.000000       -2.371236         4
         9        16        15        14     9        0.000000        0.141092         1
         9        16        15        14     9      180.000000       -1.554592         2
         9        16        15        14     9        0.000000        0.129275         3
         9        16        15        14     9      180.000000        0.187854         4
         9        16        15        45     9        0.000000        3.046268         1
         9        16        15        45     9      180.000000       -0.789546         2
         9        16        15        45     9        0.000000       -0.188588         3
         9        16        15        45     9      180.000000        0.438255         4
        10         9        16        15     9        0.000000       -0.515520         1
        10         9        16        15     9      180.000000        0.695785         2
        10         9        16        15     9        0.000000        0.374724         3
        10         9        16        15     9      180.000000       -0.306280         4
        10         9        16        46     9        0.000000       -0.040238         1
        10         9        16        46     9      180.000000       -0.063463         2
        10         9        16        46     9        0.000000        0.343610         3
        10         9        16        46     9      180.000000        0.107466         4
        10         9        16        47     9        0.000000       -0.040238         1
        10         9        16        47     9      180.000000       -0.063463         2
        10         9        16        47     9        0.000000        0.343610         3
        10         9        16        47     9      180.000000        0.107466         4
        10        11        12        13     9        0.000000       -0.350185         1
        10        11        12        13     9      180.000000       -1.424431         2
        10        11        12        13     9        0.000000        0.134422         3
        10        11        12        13     9      180.000000        0.094512         4
        10        11        12        41     9        0.000000       -0.090272         1
        10        11        12        41     9      180.000000        0.043313         2
        10        11        12        41     9        0.000000        0.181102         3
        10        11        12        41     9      180.000000        0.056845         4
        10        11        12        42     9        0.000000       -0.090272         1
        10        11        12        42     9      180.000000        0.043313         2
        10        11        12        42     9        0.000000        0.181102         3
        10        11        12        42     9      180.000000        0.056845         4
        10        11        15        14     9        0.000000       -1.429697         1
        10        11        15        14     9      180.000000       -0.955407         2
        10        11        15        14     9        0.000000        0.546147         3
        10        11        15        14     9      180.000000       -0.724521         4
        10        11        15        16     9        0.000000       -1.723216         1
        10        11        15        16     9      180.000000       -1.104300         2
        10        11        15        16     9        0.000000        0.465854         3
        10        11        15        16     9      180.000000       -0.749204         4
        10        11        15        45     9        0.000000        0.196400         1
        10        11        15        45     9      180.000000        0.124290         2
        10        11        15        45     9        0.000000        0.308843         3
        10        11        15        45     9      180.000000        0.285300         4
        11        10         9        16     9        0.000000       -0.515520         1
        11        10         9        16     9      180.000000        0.695787         2
        11        10         9        16     9        0.000000        0.374724         3
        11        10         9        16     9      180.000000       -0.306281         4
        11        12        13        14     9        0.000000       -0.108292         1
        11        12        13        14     9      180.000000       -0.236316         2
        11        12        13        14     9        0.000000        0.214413         3
        11        12        13        14     9      180.000000       -0.022611         4
        11        12        13        17     9        0.000000       -1.053554         1
        11        12        13        17     9      180.000000       -0.830251         2
        11        12        13        17     9        0.000000        0.079931         3
        11        12        13        17     9      180.000000        0.144902         4
        11        15        14        13     9        0.000000       -2.961937         1
        11        15        14        13     9      180.000000        7.649044         2
        11        15        14        13     9        0.000000       -0.716590         3
        11        15        14        13     9      180.000000       -1.139617         4
        11        15        14        43     9        0.000000        0.022483         1
        11        15        14        43     9      180.000000       -0.185436         2
        11        15        14        43     9        0.000000       -0.302149         3
        11        15        14        43     9      180.000000        0.229395         4
        11        15        14        44     9        0.000000        0.022483         1
        11        15        14        44     9      180.000000       -0.185436         2
        11        15        14        44     9        0.000000       -0.302149         3
        11        15        14        44     9      180.000000        0.229395         4
        11        15        16        46     9        0.000000        0.005453         1
        11        15        16        46     9      180.000000       -0.187956         2
        11        15        16        46     9        0.000000       -0.253493         3
        11        15        16        46     9      180.000000        0.289446         4
        11        15        16        47     9        0.000000        0.005453         1
        11        15        16        47     9      180.000000       -0.187956         2
        11        15        16        47     9        0.000000       -0.253493         3
        11        15        16        47     9      180.000000        0.289446         4
        12        11        10        38     9        0.000000       -0.150868         1
        12        11        10        38     9      180.000000        0.072012         2
        12        11        10        38     9        0.000000        0.214875         3
        12        11        10        38     9      180.000000        0.045180         4
        12        11        10        39     9        0.000000       -0.150868         1
        12        11        10        39     9      180.000000        0.072012         2
        12        11        10        39     9        0.000000        0.214875         3
        12        11        10        39     9      180.000000        0.045180         4
        12        11        15        14     9        0.000000       -0.903494         1
        12        11        15        14     9      180.000000       -0.930898         2
        12        11        15        14     9        0.000000        0.568820         3
        12        11        15        14     9      180.000000       -0.686260         4
        12        11        15        16     9        0.000000       -1.429699         1
        12        11        15        16     9      180.000000       -0.955405         2
        12        11        15        16     9        0.000000        0.546147         3
        12        11        15        16     9      180.000000       -0.724522         4
        12        11        15        45     9        0.000000       -0.022164         1
        12        11        15        45     9      180.000000        0.142975         2
        12        11        15        45     9        0.000000        0.388150         3
        12        11        15        45     9      180.000000        0.197015         4
        12        13        14        15     9        0.000000       -0.108292         1
        12        13        14        15     9      180.000000       -0.236315         2
        12        13        14        15     9        0.000000        0.214414         3
        12        13        14        15     9      180.000000       -0.022610         4
        12        13        14        43     9        0.000000       -0.035630         1
        12        13        14        43     9      180.000000       -0.006543         2
        12        13        14        43     9        0.000000        0.113451         3
        12        13        14        43     9      180.000000        0.061303         4
        12        13        14        44     9        0.000000       -0.035630         1
        12        13        14        44     9      180.000000       -0.006543         2
        12        13        14        44     9        0.000000        0.113451         3
        12        13        14        44     9      180.000000        0.061303         4
        12        13        17        18     9        0.000000       -1.098175         1
        12        13        17        18     9      180.000000       13.593959         2
        12        13        17        18     9        0.000000       -0.986214         3
        12        13        17        18     9      180.000000       -0.292887         4
        12        13        17        19     9        0.000000        5.478042         1
        12        13        17        19     9      180.000000       11.813331         2
        12        13        17        19     9        0.000000        1.162187         3
        12        13        17        19     9      180.000000       -0.472515         4
        13        12        11        15     9        0.000000       -2.961934         1
        13        12        11        15     9      180.000000        7.649042         2
        13        12        11        15     9        0.000000       -0.716591         3
        13        12        11        15     9      180.000000       -1.139618         4
        13        12        11        40     9        0.000000        0.986641         1
        13        12        11        40     9      180.000000       -0.408411         2
        13        12        11        40     9        0.000000       -0.056322         3
        13        12        11        40     9      180.000000        0.261077         4
        13        14        15        16     9        0.000000       -0.350184         1
        13        14        15        16     9      180.000000       -1.424431         2
        13        14        15        16     9        0.000000        0.134422         3
        13        14        15        16     9      180.000000        0.094512         4
        13        14        15        45     9        0.000000        0.986643         1
        13        14        15        45     9      180.000000       -0.408410         2
        13        14        15        45     9        0.000000       -0.056322         3
        13        14        15        45     9      180.000000        0.261077         4
        13        17        19        20     9        0.000000        1.137152         1
        13        17        19        20     9      180.000000        4.564565         2
        13        17        19        20     9        0.000000       -0.443738         3
        13        17        19        20     9      180.000000        0.330182         4
        13        17        19        25     9        0.000000       -0.429378         1
        13        17        19        25     9      180.000000        4.507294         2
        13        17        19        25     9        0.000000       -0.713771         3
        13        17        19        25     9      180.000000        0.293707         4
        14        13        12        41     9        0.000000       -0.035630         1
        14        13        12        41     9      180.000000       -0.006543         2
        14        13        12        41     9        0.000000        0.113451         3
        14        13        12        41     9      180.000000        0.061303         4
        14        13        12        42     9        0.000000       -0.035630         1
        14        13        12        42     9      180.000000       -0.006543         2
        14        13        12        42     9        0.000000        0.113451         3
        14        13        12        42     9      180.000000        0.061303         4
        14        13        17        18     9        0.000000       -1.098175         1
        14        13        17        18     9      180.000000       13.593960         2
        14        13        17        18     9        0.000000       -0.986214         3
        14        13        17        18     9      180.000000       -0.292888         4
        14        13        17        19     9        0.000000        5.478041         1
        14        13        17        19     9      180.000000       11.813332         2
        14        13        17        19     9        0.000000        1.162187         3
        14        13        17        19     9      180.000000       -0.472514         4
        14        15        11        40     9        0.000000       -0.022164         1
        14        15        11        40     9      180.000000        0.142976         2
        14        15        11        40     9        0.000000        0.388149         3
        14        15        11        40     9      180.000000        0.197014         4
        14        15        16        46     9        0.000000       -0.150868         1
        14        15        16        46     9      180.000000        0.072012         2
        14        15        16        46     9        0.000000        0.214875         3
        14        15        16        46     9      180.000000        0.045180         4
        14        15        16        47     9        0.000000       -0.150868         1
        14        15        16        47     9      180.000000        0.072012         2
        14        15        16        47     9        0.000000        0.214875         3
        14        15        16        47     9      180.000000        0.045180         4
        15        11        10        38     9        0.000000        0.005454         1
        15        11        10        38     9      180.000000       -0.187956         2
        15        11        10        38     9        0.000000       -0.253494         3
        15        11        10        38     9      180.000000        0.289446         4
        15        11        10        39     9        0.000000        0.005454         1
        15        11        10        39     9      180.000000       -0.187956         2
        15        11        10        39     9        0.000000       -0.253494         3
        15        11        10        39     9      180.000000        0.289446         4
        15        11        12        41     9        0.000000        0.022483         1
        15        11        12        41     9      180.000000       -0.185436         2
        15        11        12        41     9        0.000000       -0.302149         3
        15        11        12        41     9      180.000000        0.229395         4
        15        11        12        42     9        0.000000        0.022483         1
        15        11        12        42     9      180.000000       -0.185436         2
        15        11        12        42     9        0.000000       -0.302149         3
        15        11        12        42     9      180.000000        0.229395         4
        15        14        13        17     9        0.000000       -1.053554         1
        15        14        13        17     9      180.000000       -0.830251         2
        15        14        13        17     9        0.000000        0.079931         3
        15        14        13        17     9      180.000000        0.144902         4
        16         9        10        38     9        0.000000       -0.040238         1
        16         9        10        38     9      180.000000       -0.063462         2
        16         9        10        38     9        0.000000        0.343610         3
        16         9        10        38     9      180.000000        0.107466         4
        16         9        10        39     9        0.000000       -0.040238         1
        16         9        10        39     9      180.000000       -0.063462         2
        16         9        10        39     9        0.000000        0.343610         3
        16         9        10        39     9      180.000000        0.107466         4
        16        15        11        40     9        0.000000        0.196399         1
        16        15        11        40     9      180.000000        0.124289         2
        16        15        11        40     9        0.000000        0.308842         3
        16        15        11        40     9      180.000000        0.285300         4
        16        15        14        43     9        0.000000       -0.090272         1
        16        15        14        43     9      180.000000        0.043313         2
        16        15        14        43     9        0.000000        0.181102         3
        16        15        14        43     9      180.000000        0.056845         4
        16        15        14        44     9        0.000000       -0.090272         1
        16        15        14        44     9      180.000000        0.043313         2
        16        15        14        44     9        0.000000        0.181102         3
        16        15        14        44     9      180.000000        0.056845         4
        17        13        12        41     9        0.000000        0.072827         1
        17        13        12        41     9      180.000000        0.062376         2
        17        13        12        41     9        0.000000        0.094140         3
        17        13        12        41     9      180.000000        0.002519         4
        17        13        12        42     9        0.000000        0.072827         1
        17        13        12        42     9      180.000000        0.062376         2
        17        13        12        42     9        0.000000        0.094140         3
        17        13        12        42     9      180.000000        0.002519         4
        17        13        14        43     9        0.000000        0.072828         1
        17        13        14        43     9      180.000000        0.062376         2
        17        13        14        43     9        0.000000        0.094140         3
        17        13        14        43     9      180.000000        0.002519         4
        17        13        14        44     9        0.000000        0.072828         1
        17        13        14        44     9      180.000000        0.062376         2
        17        13        14        44     9        0.000000        0.094140         3
        17        13        14        44     9      180.000000        0.002519         4
        17        19        20        21     9        0.000000       -0.121037         1
        17        19        20        21     9      180.000000       15.496027         2
        17        19        20        21     9        0.000000       -0.106787         3
        17        19        20        21     9      180.000000       -0.600908         4
        17        19        20        22     9        0.000000        0.082879         1
        17        19        20        22     9      180.000000       15.002273         2
        17        19        20        22     9        0.000000       -0.071820         3
        17        19        20        22     9      180.000000       -0.348140         4
        17        19        25        24     9        0.000000       -0.376045         1
        17        19        25        24     9      180.000000       11.801866         2
        17        19        25        24     9        0.000000       -0.339521         3
        17        19        25        24     9      180.000000       -0.175976         4
        17        19        25        26     9        0.000000       -0.185484         1
        17        19        25        26     9      180.000000       15.672167         2
        17        19        25        26     9        0.000000        0.199258         3
        17        19        25        26     9      180.000000       -0.802405         4
        18        17        19        20     9        0.000000       -1.599414         1
        18        17        19        20     9      180.000000        1.201881         2
        18        17        19        20     9        0.000000        0.290570         3
        18        17        19        20     9      180.000000        0.150177         4
        18        17        19        25     9        0.000000       -6.085287         1
        18        17        19        25     9      180.000000        1.318963         2
        18        17        19        25     9        0.000000        0.204620         3
        18        17        19        25     9      180.000000        0.051479         4
        19        20        21        48     9        0.000000        0.001839         1
        19        20        21        48     9      180.000000       -0.000160         2
        19        20        21        48     9        0.000000        0.057282         3
        19        20        21        48     9      180.000000        0.011882         4
        19        20        21        49     9        0.000000        0.001839         1
        19        20        21        49     9      180.000000       -0.000160         2
        19        20        21        49     9        0.000000        0.057282         3
        19        20        21        49     9      180.000000        0.011882         4
        19        20        21        50     9        0.000000        0.001839         1
        19        20        21        50     9      180.000000       -0.000160         2
        19        20        21        50     9        0.000000        0.057282         3
        19        20        21        50     9      180.000000        0.011882         4
        19        20        22        23     9        0.000000       -0.200840         1
        19        20        22        23     9      180.000000       19.354332         2
        19        20        22        23     9        0.000000       -1.560269         3
        19        20        22        23     9      180.000000       -0.473391         4
        19        20        22        51     9        0.000000       -0.152889         1
        19        20        22        51     9      180.000000       15.305757         2
        19        20        22        51     9        0.000000       -0.783621         3
        19        20        22        51     9      180.000000       -0.010884         4
        19        25        24        23     9        0.000000       -0.213291         1
        19        25        24        23     9      180.000000       17.944276         2
        19        25        24        23     9        0.000000       -1.791953         3
        19        25        24        23     9      180.000000       -0.269307         4
        19        25        24        53     9        0.000000        0.172353         1
        19        25        24        53     9      180.000000       13.828927         2
        19        25        24        53     9        0.000000       -0.619854         3
        19        25        24        53     9      180.000000        0.157724         4
        19        25        26        27     9        0.000000       -1.295762         1
        19        25        26        27     9      180.000000        3.820900         2
        19        25        26        27     9        0.000000        0.229259         3
        19        25        26        27     9      180.000000       -0.082718         4
        19        25        26        30     9        0.000000       -1.295761         1
        19        25        26        30     9      180.000000        3.820900         2
        19        25        26        30     9        0.000000        0.229260         3
        19        25        26        30     9      180.000000       -0.082718         4
        20        19        25        24     9        0.000000       -0.126939         1
        20        19        25        24     9      180.000000       15.453006         2
        20        19        25        24     9        0.000000       -1.309617         3
        20        19        25        24     9      180.000000       -0.134688         4
        20        19        25        26     9        0.000000        0.326160         1
        20        19        25        26     9      180.000000       17.230089         2
        20        19        25        26     9        0.000000        0.190418         3
        20        19        25        26     9      180.000000       -0.474260         4
        20        22        23        24     9        0.000000       -0.011790         1
        20        22        23        24     9      180.000000       18.326922         2
        20        22        23        24     9        0.000000       -1.755800         3
        20        22        23        24     9      180.000000       -0.421015         4
        20        22        23        52     9        0.000000        0.080501         1
        20        22        23        52     9      180.000000       14.327410         2
        20        22        23        52     9        0.000000       -0.641150         3
        20        22        23        52     9      180.000000        0.077430         4
        21        20        19        25     9        0.000000        0.185049         1
        21        20        19        25     9      180.000000       15.962564         2
        21        20        19        25     9        0.000000        0.079612         3
        21        20        19        25     9      180.000000       -0.449339         4
        21        20        22        23     9        0.000000        0.151549         1
        21        20        22        23     9      180.000000       17.133681         2
        21        20        22        23     9        0.000000       -0.239819         3
        21        20        22        23     9      180.000000       -0.300025         4
        21        20        22        51     9        0.000000       -0.167829         1
        21        20        22        51     9      180.000000       13.660319         2
        21        20        22        51     9        0.000000       -0.421567         3
        21        20        22        51     9      180.000000        0.182698         4
        22        20        19        25     9        0.000000        0.175124         1
        22        20        19        25     9      180.000000       17.933455         2
        22        20        19        25     9        0.000000       -1.010985         3
        22        20        19        25     9      180.000000       -0.587535         4
        22        20        21        48     9        0.000000       -0.016320         1
        22        20        21        48     9      180.000000        0.034395         2
        22        20        21        48     9        0.000000       -0.056513         3
        22        20        21        48     9      180.000000        0.005326         4
        22        20        21        49     9        0.000000       -0.016320         1
        22        20        21        49     9      180.000000        0.034395         2
        22        20        21        49     9        0.000000       -0.056513         3
        22        20        21        49     9      180.000000        0.005326         4
        22        20        21        50     9        0.000000       -0.016320         1
        22        20        21        50     9      180.000000        0.034395         2
        22        20        21        50     9        0.000000       -0.056513         3
        22        20        21        50     9      180.000000        0.005326         4
        22        23        24        25     9        0.000000       -0.139457         1
        22        23        24        25     9      180.000000       18.355432         2
        22        23        24        25     9        0.000000       -1.745492         3
        22        23        24        25     9      180.000000       -0.401425         4
        22        23        24        53     9        0.000000        0.135499         1
        22        23        24        53     9      180.000000       14.820985         2
        22        23        24        53     9        0.000000       -0.699982         3
        22        23        24        53     9      180.000000        0.117750         4
        23        24        25        26     9        0.000000        0.371406         1
        23        24        25        26     9      180.000000       18.622708         2
        23        24        25        26     9        0.000000        0.117375         3
        23        24        25        26     9      180.000000       -0.384712         4
        24        23        22        51     9        0.000000        0.131507         1
        24        23        22        51     9      180.000000       14.255440         2
        24        23        22        51     9        0.000000       -0.734917         3
        24        23        22        51     9      180.000000        0.126526         4
        24        25        26        27     9        0.000000        0.646838         1
        24        25        26        27     9      180.000000        3.124105         2
        24        25        26        27     9        0.000000       -0.317713         3
        24        25        26        27     9      180.000000        0.075699         4
        24        25        26        30     9        0.000000        0.646838         1
        24        25        26        30     9      180.000000        3.124105         2
        24        25        26        30     9        0.000000       -0.317713         3
        24        25        26        30     9      180.000000        0.075699         4
        25        24        23        52     9        0.000000        0.008890         1
        25        24        23        52     9      180.000000       14.707337         2
        25        24        23        52     9        0.000000       -0.706705         3
        25        24        23        52     9      180.000000        0.026743         4
        25        26        27        28     9        0.000000        0.450085         1
        25        26        27        28     9      180.000000       14.673411         2
        25        26        27        28     9        0.000000        0.408999         3
        25        26        27        28     9      180.000000       -0.237006         4
        25        26        30        29     9        0.000000        0.450085         1
        25        26        30        29     9      180.000000       14.673411         2
        25        26        30        29     9        0.000000        0.408999         3
        25        26        30        29     9      180.000000       -0.237006         4
        26        25        24        53     9        0.000000        0.308074         1
        26        25        24        53     9      180.000000       14.528427         2
        26        25        24        53     9        0.000000        0.018742         3
        26        25        24        53     9      180.000000        0.149959         4
        26        27        28        29     9        0.000000       -0.096345         1
        26        27        28        29     9      180.000000       41.155693         2
        26        27        28        29     9        0.000000       -5.916010         3
        26        27        28        29     9      180.000000       -0.009963         4
        26        27        28        54     9        0.000000        1.294670         1
        26        27        28        54     9      180.000000       26.517305         2
        26        27        28        54     9        0.000000       -0.174923         3
        26        27        28        54     9      180.000000       -0.119863         4
        26        30        29        28     9        0.000000       -0.096344         1
        26        30        29        28     9      180.000000       41.155693         2
        26        30        29        28     9        0.000000       -5.916010         3
        26        30        29        28     9      180.000000       -0.009963         4
        26        30        29        55     9        0.000000        1.294670         1
        26        30        29        55     9      180.000000       26.517303         2
        26        30        29        55     9        0.000000       -0.174923         3
        26        30        29        55     9      180.000000       -0.119864         4
        27        26        30        29     9        0.000000       -0.229728         1
        27        26        30        29     9      180.000000       33.424728         2
        27        26        30        29     9        0.000000       -5.598178         3
        27        26        30        29     9      180.000000        0.082664         4
        27        28        29        30     9        0.000000       -0.646395         1
        27        28        29        30     9      180.000000       33.879564         2
        27        28        29        30     9        0.000000       -7.997882         3
        27        28        29        30     9      180.000000       -0.068922         4
        27        28        29        55     9        0.000000        0.399472         1
        27        28        29        55     9      180.000000       15.777787         2
        27        28        29        55     9        0.000000       -0.622625         3
        27        28        29        55     9      180.000000       -0.473181         4
        28        27        26        30     9        0.000000       -0.229728         1
        28        27        26        30     9      180.000000       33.424730         2
        28        27        26        30     9        0.000000       -5.598178         3
        28        27        26        30     9      180.000000        0.082664         4
        30        29        28        54     9        0.000000        0.399472         1
        30        29        28        54     9      180.000000       15.777787         2
        30        29        28        54     9        0.000000       -0.622625         3
        30        29        28        54     9      180.000000       -0.473181         4
        38        10        11        40     9        0.000000       -0.140741         1
        38        10        11        40     9      180.000000       -0.009947         2
        38        10        11        40     9        0.000000        0.295617         3
        38        10        11        40     9      180.000000       -0.018107         4
        39        10        11        40     9        0.000000       -0.140741         1
        39        10        11        40     9      180.000000       -0.009947         2
        39        10        11        40     9        0.000000        0.295617         3
        39        10        11        40     9      180.000000       -0.018107         4
        40        11        12        41     9        0.000000       -0.086595         1
        40        11        12        41     9      180.000000        0.026398         2
        40        11        12        41     9        0.000000        0.269152         3
        40        11        12        41     9      180.000000       -0.020190         4
        40        11        12        42     9        0.000000       -0.086595         1
        40        11        12        42     9      180.000000        0.026398         2
        40        11        12        42     9        0.000000        0.269152         3
        40        11        12        42     9      180.000000       -0.020190         4
        40        11        15        45     9        0.000000        0.223574         1
        40        11        15        45     9      180.000000       -0.077956         2
        40        11        15        45     9        0.000000        0.353694         3
        40        11        15        45     9      180.000000       -0.057173         4
        43        14        15        45     9        0.000000       -0.086595         1
        43        14        15        45     9      180.000000        0.026398         2
        43        14        15        45     9        0.000000        0.269152         3
        43        14        15        45     9      180.000000       -0.020189         4
        44        14        15        45     9        0.000000       -0.086595         1
        44        14        15        45     9      180.000000        0.026398         2
        44        14        15        45     9        0.000000        0.269152         3
        44        14        15        45     9      180.000000       -0.020189         4
        45        15        16        46     9        0.000000       -0.140741         1
        45        15        16        46     9      180.000000       -0.009947         2
        45        15        16        46     9        0.000000        0.295617         3
        45        15        16        46     9      180.000000       -0.018107         4
        45        15        16        47     9        0.000000       -0.140741         1
        45        15        16        47     9      180.000000       -0.009947         2
        45        15        16        47     9        0.000000        0.295617         3
        45        15        16        47     9      180.000000       -0.018107         4
        51        22        23        52     9        0.000000       -0.340869         1
        51        22        23        52     9      180.000000       10.708870         2
        51        22        23        52     9        0.000000       -0.514370         3
        51        22        23        52     9      180.000000        0.155239         4
        52        23        24        53     9        0.000000       -0.183605         1
        52        23        24        53     9      180.000000       12.106846         2
        52        23        24        53     9        0.000000       -0.853899         3
        52        23        24        53     9      180.000000        0.308546         4
        54        28        29        55     9        0.000000       -0.304766         1
        54        28        29        55     9      180.000000        8.321254         2
        54        28        29        55     9        0.000000       -0.141498         3
        54        28        29        55     9      180.000000        0.273252         4

[ dihedrals ] ; impropers
;       ai        aj        ak        al funct           phase               k        pn
         2         1         3         8     4      180.000000       21.793920         2
         2         3         8         1     4      180.000000       21.793920         2
         2         8         1         3     4      180.000000       21.793920         2
         4         3         5         6     4      180.000000       21.793920         2
         4         5         6         3     4      180.000000       21.793920         2
         4         6         3         5     4      180.000000       21.793920         2
         7         6         8         9     4      180.000000       27.893333         2
         7         8         9         6     4      180.000000       27.893333         2
         7         9         6         8     4      180.000000       27.893333         2
        22        20        23        51     4      180.000000        3.156178         2
        22        23        51        20     4      180.000000        3.156178         2
        22        51        20        23     4      180.000000        3.156178         2
        23        22        24        52     4      180.000000        1.122191         2
        23        24        52        22     4      180.000000        1.122191         2
        23        52        22        24     4      180.000000        1.122191         2
        24        23        25        53     4      180.000000        0.529732         2
        24        25        53        23     4      180.000000        0.529732         2
        24        53        23        25     4      180.000000        0.529732         2

[ pairs ]
;       ai        aj funct
         1         4     1
         1         7     1
         1        34     1
         2         5     1
         2         6     1
         2         9     1
         3         7     1
         3        31     1
         3        32     1
         3        33     1
         3        35     1
         3        36     1
         3        37     1
         4         8     1
         4         9     1
         5         7     1
         5        34     1
         6        10     1
         6        16     1
         6        34     1
         6        35     1
         6        36     1
         6        37     1
         7        11     1
         7        15     1
         7        38     1
         7        39     1
         7        46     1
         7        47     1
         8        10     1
         8        16     1
         8        31     1
         8        32     1
         8        33     1
         8        34     1
         9        12     1
         9        14     1
         9        40     1
         9        45     1
        10        13     1
        10        14     1
        10        41     1
        10        42     1
        10        45     1
        10        46     1
        10        47     1
        11        17     1
        11        43     1
        11        44     1
        11        46     1
        11        47     1
        12        16     1
        12        18     1
        12        19     1
        12        38     1
        12        39     1
        12        43     1
        12        44     1
        12        45     1
        13        16     1
        13        20     1
        13        25     1
        13        40     1
        13        45     1
        14        18     1
        14        19     1
        14        40     1
        14        41     1
        14        42     1
        14        46     1
        14        47     1
        15        17     1
        15        38     1
        15        39     1
        15        41     1
        15        42     1
        16        38     1
        16        39     1
        16        40     1
        16        43     1
        16        44     1
        17        21     1
        17        22     1
        17        24     1
        17        26     1
        17        41     1
        17        42     1
        17        43     1
        17        44     1
        18        20     1
        18        25     1
        19        23     1
        19        27     1
        19        30     1
        19        48     1
        19        49     1
        19        50     1
        19        51     1
        19        53     1
        20        24     1
        20        26     1
        20        52     1
        21        23     1
        21        25     1
        21        51     1
        22        25     1
        22        48     1
        22        49     1
        22        50     1
        22        53     1
        23        26     1
        24        27     1
        24        30     1
        24        51     1
        25        28     1
        25        29     1
        25        52     1
        26        53     1
        26        54     1
        26        55     1
        27        55     1
        30        54     1
        38        40     1
        39        40     1
        40        41     1
        40        42     1
        40        45     1
        43        45     1
        44        45     1
        45        46     1
        45        47     1
        51        52     1
        52        53     1
        54        55     1
