; ITP file created by ByteFF-ML, 2025-12-06 06:48:12.545164

[ atomtypes ]
;name           bonded.type        at.num        mass        charge   ptype           sigma         epsilon
 c0bf                                   6      0.0000       0.00000       A     3.39771e-01     4.50971e-01
 c1bf                                   6      0.0000       0.00000       A     3.31409e-01     4.15870e-01
 c2bf                                   6      0.0000       0.00000       A     3.31491e-01     4.11108e-01
 c3bf                                   6      0.0000       0.00000       A     3.39762e-01     4.51590e-01
 c4bf                                   6      0.0000       0.00000       A     3.39550e-01     4.48473e-01
 c5bf                                   6      0.0000       0.00000       A     3.39613e-01     4.52508e-01
 n6bf                                   7      0.0000       0.00000       A     2.67317e-01     7.07648e+00
 c7bf                                   6      0.0000       0.00000       A     3.39571e-01     4.61839e-01
 c8bf                                   6      0.0000       0.00000       A     3.39897e-01     4.51199e-01
 c9bf                                   6      0.0000       0.00000       A     3.39910e-01     4.51033e-01
 c10bf                                  6      0.0000       0.00000       A     3.39910e-01     4.51033e-01
 c11bf                                  6      0.0000       0.00000       A     3.39776e-01     4.51083e-01
 n12bf                                  7      0.0000       0.00000       A     3.27356e-01     6.44539e-01
 c13bf                                  6      0.0000       0.00000       A     3.31387e-01     4.13372e-01
 c14bf                                  6      0.0000       0.00000       A     3.31373e-01     4.13545e-01
 c15bf                                  6      0.0000       0.00000       A     3.31365e-01     4.13714e-01
 c16bf                                  6      0.0000       0.00000       A     3.31501e-01     4.13754e-01
 c17bf                                  6      0.0000       0.00000       A     3.31577e-01     4.13377e-01
 c18bf                                  6      0.0000       0.00000       A     3.31419e-01     4.08822e-01
 c19bf                                  6      0.0000       0.00000       A     3.31424e-01     4.13971e-01
 n20bf                                  7      0.0000       0.00000       A     3.36061e-01     3.56452e-01
 o21bf                                  8      0.0000       0.00000       A     3.04770e-01     6.10718e-01
 n22bf                                  7      0.0000       0.00000       A     3.20811e-01     8.54275e-01
 c23bf                                  6      0.0000       0.00000       A     3.31420e-01     4.09122e-01
 c24bf                                  6      0.0000       0.00000       A     3.31533e-01     4.15377e-01
 c25bf                                  6      0.0000       0.00000       A     3.31417e-01     4.15977e-01
 o26bf                                  8      0.0000       0.00000       A     3.04661e-01     6.12437e-01
 c27bf                                  6      0.0000       0.00000       A     3.39748e-01     4.49386e-01
 c28bf                                  6      0.0000       0.00000       A     3.39855e-01     4.51297e-01
 c29bf                                  6      0.0000       0.00000       A     3.39900e-01     4.50376e-01
 c30bf                                  6      0.0000       0.00000       A     3.39900e-01     4.50376e-01
 c31bf                                  6      0.0000       0.00000       A     3.40137e-01     4.51587e-01
 h32bf                                  1      0.0000       0.00000       A     2.60038e-01     8.66937e-02
 h33bf                                  1      0.0000       0.00000       A     2.60038e-01     8.66937e-02
 h34bf                                  1      0.0000       0.00000       A     2.60038e-01     8.66937e-02
 h35bf                                  1      0.0000       0.00000       A     2.59802e-01     8.78062e-02
 h36bf                                  1      0.0000       0.00000       A     2.59802e-01     8.78062e-02
 h37bf                                  1      0.0000       0.00000       A     2.60240e-01     8.83536e-02
 h38bf                                  1      0.0000       0.00000       A     2.60240e-01     8.83536e-02
 h39bf                                  1      0.0000       0.00000       A     1.87872e-01     8.67687e-02
 h40bf                                  1      0.0000       0.00000       A     1.87872e-01     8.67687e-02
 h41bf                                  1      0.0000       0.00000       A     1.10785e-01     4.19447e-02
 h42bf                                  1      0.0000       0.00000       A     1.88091e-01     8.69666e-02
 h43bf                                  1      0.0000       0.00000       A     1.88091e-01     8.69666e-02
 h44bf                                  1      0.0000       0.00000       A     2.60062e-01     8.71550e-02
 h45bf                                  1      0.0000       0.00000       A     2.60062e-01     8.71550e-02
 h46bf                                  1      0.0000       0.00000       A     2.60062e-01     8.71550e-02
 h47bf                                  1      0.0000       0.00000       A     2.60062e-01     8.71550e-02
 h48bf                                  1      0.0000       0.00000       A     2.60062e-01     8.71550e-02
 h49bf                                  1      0.0000       0.00000       A     2.60062e-01     8.71550e-02
 h50bf                                  1      0.0000       0.00000       A     2.42477e-01     8.80136e-02
 h51bf                                  1      0.0000       0.00000       A     2.42477e-01     8.80136e-02
 h52bf                                  1      0.0000       0.00000       A     1.10408e-01     3.93910e-02
 h53bf                                  1      0.0000       0.00000       A     2.62376e-01     6.77595e-02
 h54bf                                  1      0.0000       0.00000       A     2.62584e-01     6.76590e-02
 h55bf                                  1      0.0000       0.00000       A     2.62545e-01     6.73078e-02
 h56bf                                  1      0.0000       0.00000       A     1.10424e-01     4.11499e-02
 h57bf                                  1      0.0000       0.00000       A     1.10424e-01     4.11499e-02
 h58bf                                  1      0.0000       0.00000       A     2.59861e-01     8.80488e-02
 h59bf                                  1      0.0000       0.00000       A     2.59861e-01     8.80488e-02
 h60bf                                  1      0.0000       0.00000       A     2.59826e-01     8.77551e-02
 h61bf                                  1      0.0000       0.00000       A     2.59826e-01     8.77551e-02
 h62bf                                  1      0.0000       0.00000       A     2.59826e-01     8.77551e-02
 h63bf                                  1      0.0000       0.00000       A     2.59826e-01     8.77551e-02
 h64bf                                  1      0.0000       0.00000       A     2.59826e-01     8.77551e-02
 h65bf                                  1      0.0000       0.00000       A     2.59826e-01     8.77551e-02
 h66bf                                  1      0.0000       0.00000       A     2.60109e-01     8.76673e-02
 h67bf                                  1      0.0000       0.00000       A     2.60109e-01     8.76673e-02
 h68bf                                  1      0.0000       0.00000       A     1.10785e-01     4.19447e-02

[ moleculetype ]
;name             nrexcl
 ligand_64             3

[ atoms ]
;       nr            type      resi   res      atom      cgnr      charge          mass ; qtot
         1            c0bf         1   UNL        c0         1    -0.02568       12.0110 ; qtot   -0.026
         2            c1bf         1   UNL        c1         2    -0.05236       12.0110 ; qtot   -0.078
         3            c2bf         1   UNL        c2         3    -0.18093       12.0110 ; qtot   -0.259
         4            c3bf         1   UNL        c3         4    -0.00722       12.0110 ; qtot   -0.266
         5            c4bf         1   UNL        c4         5    -0.10624       12.0110 ; qtot   -0.372
         6            c5bf         1   UNL        c5         6     0.11340       12.0110 ; qtot   -0.259
         7            n6bf         1   UNL        n6         7    -0.82866       14.0070 ; qtot   -1.088
         8            c7bf         1   UNL        c7         8     0.11614       12.0110 ; qtot   -0.972
         9            c8bf         1   UNL        c8         9    -0.06812       12.0110 ; qtot   -1.040
        10            c9bf         1   UNL        c9        10    -0.10780       12.0110 ; qtot   -1.147
        11           c10bf         1   UNL       c10        11    -0.10780       12.0110 ; qtot   -1.255
        12           c11bf         1   UNL       c11        12     0.20461       12.0110 ; qtot   -1.051
        13           n12bf         1   UNL       n12        13    -0.92451       14.0070 ; qtot   -1.975
        14           c13bf         1   UNL       c13        14     0.39312       12.0110 ; qtot   -1.582
        15           c14bf         1   UNL       c14        15    -0.20756       12.0110 ; qtot   -1.790
        16           c15bf         1   UNL       c15        16     0.04292       12.0110 ; qtot   -1.747
        17           c16bf         1   UNL       c16        17    -0.15163       12.0110 ; qtot   -1.898
        18           c17bf         1   UNL       c17        18    -0.01891       12.0110 ; qtot   -1.917
        19           c18bf         1   UNL       c18        19    -0.26513       12.0110 ; qtot   -2.182
        20           c19bf         1   UNL       c19        20     0.61162       12.0110 ; qtot   -1.571
        21           n20bf         1   UNL       n20        21    -0.58141       14.0070 ; qtot   -2.152
        22           o21bf         1   UNL       o21        22    -0.62993       15.9990 ; qtot   -2.782
        23           n22bf         1   UNL       n22        23     0.11173       14.0070 ; qtot   -2.670
        24           c23bf         1   UNL       c23        24    -0.08440       12.0110 ; qtot   -2.755
        25           c24bf         1   UNL       c24        25    -0.24749       12.0110 ; qtot   -3.002
        26           c25bf         1   UNL       c25        26     0.61620       12.0110 ; qtot   -2.386
        27           o26bf         1   UNL       o26        27    -0.55107       15.9990 ; qtot   -2.937
        28           c27bf         1   UNL       c27        28    -0.17159       12.0110 ; qtot   -3.109
        29           c28bf         1   UNL       c28        29    -0.03674       12.0110 ; qtot   -3.145
        30           c29bf         1   UNL       c29        30    -0.08858       12.0110 ; qtot   -3.234
        31           c30bf         1   UNL       c30        31    -0.08858       12.0110 ; qtot   -3.323
        32           c31bf         1   UNL       c31        32    -0.02157       12.0110 ; qtot   -3.344
        33           h32bf         1   UNL       h32        33     0.04830        1.0080 ; qtot   -3.296
        34           h33bf         1   UNL       h33        34     0.04830        1.0080 ; qtot   -3.248
        35           h34bf         1   UNL       h34        35     0.04830        1.0080 ; qtot   -3.199
        36           h35bf         1   UNL       h35        36     0.07020        1.0080 ; qtot   -3.129
        37           h36bf         1   UNL       h36        37     0.07020        1.0080 ; qtot   -3.059
        38           h37bf         1   UNL       h37        38     0.08544        1.0080 ; qtot   -2.973
        39           h38bf         1   UNL       h38        39     0.08544        1.0080 ; qtot   -2.888
        40           h39bf         1   UNL       h39        40     0.10707        1.0080 ; qtot   -2.781
        41           h40bf         1   UNL       h40        41     0.10707        1.0080 ; qtot   -2.674
        42           h41bf         1   UNL       h41        42     0.51169        1.0080 ; qtot   -2.162
        43           h42bf         1   UNL       h42        43     0.10572        1.0080 ; qtot   -2.056
        44           h43bf         1   UNL       h43        44     0.10572        1.0080 ; qtot   -1.951
        45           h44bf         1   UNL       h44        45     0.05527        1.0080 ; qtot   -1.895
        46           h45bf         1   UNL       h45        46     0.05527        1.0080 ; qtot   -1.840
        47           h46bf         1   UNL       h46        47     0.05527        1.0080 ; qtot   -1.785
        48           h47bf         1   UNL       h47        48     0.05527        1.0080 ; qtot   -1.730
        49           h48bf         1   UNL       h48        49     0.05527        1.0080 ; qtot   -1.674
        50           h49bf         1   UNL       h49        50     0.05527        1.0080 ; qtot   -1.619
        51           h50bf         1   UNL       h50        51     0.05578        1.0080 ; qtot   -1.563
        52           h51bf         1   UNL       h51        52     0.05578        1.0080 ; qtot   -1.508
        53           h52bf         1   UNL       h52        53     0.47967        1.0080 ; qtot   -1.028
        54           h53bf         1   UNL       h53        54     0.13345        1.0080 ; qtot   -0.894
        55           h54bf         1   UNL       h54        55     0.13843        1.0080 ; qtot   -0.756
        56           h55bf         1   UNL       h55        56     0.12891        1.0080 ; qtot   -0.627
        57           h56bf         1   UNL       h56        57     0.31037        1.0080 ; qtot   -0.317
        58           h57bf         1   UNL       h57        58     0.31037        1.0080 ; qtot   -0.006
        59           h58bf         1   UNL       h58        59     0.06951        1.0080 ; qtot    0.063
        60           h59bf         1   UNL       h59        60     0.06951        1.0080 ; qtot    0.133
        61           h60bf         1   UNL       h60        61     0.03812        1.0080 ; qtot    0.171
        62           h61bf         1   UNL       h61        62     0.03812        1.0080 ; qtot    0.209
        63           h62bf         1   UNL       h62        63     0.03812        1.0080 ; qtot    0.247
        64           h63bf         1   UNL       h63        64     0.03812        1.0080 ; qtot    0.285
        65           h64bf         1   UNL       h64        65     0.03812        1.0080 ; qtot    0.323
        66           h65bf         1   UNL       h65        66     0.03812        1.0080 ; qtot    0.361
        67           h66bf         1   UNL       h66        67     0.06348        1.0080 ; qtot    0.425
        68           h67bf         1   UNL       h67        68     0.06348        1.0080 ; qtot    0.488
        69           h68bf         1   UNL       h68        69     0.51164        1.0080 ; qtot    1.000

[ bonds ]
;       ai        aj funct               r               k
         1         2     1        0.150135   218778.714355
         1        33     1        0.109341   302170.757910
         1        34     1        0.109341   302170.757910
         1        35     1        0.109341   302170.757910
         2         3     1        0.138135   351590.171973
         2        25     1        0.144356   232126.042090
         3         4     1        0.149848   213595.408960
         3        23     1        0.140873   219193.079492
         4         5     1        0.154647   169229.086572
         4        36     1        0.109421   296905.414551
         4        37     1        0.109421   296905.414551
         5         6     1        0.152783   188358.386157
         5        38     1        0.109423   300850.387207
         5        39     1        0.109423   300850.387207
         6         7     1        0.151825   136793.982593
         6        40     1        0.109062   312179.210742
         6        41     1        0.109062   312179.210742
         7         8     1        0.151979   132185.313232
         7        42     1        0.102730   379777.624707
         7        69     1        0.102730   379777.624707
         8         9     1        0.154237   161338.030396
         8        43     1        0.109070   310563.477832
         8        44     1        0.109070   310563.477832
         9        10     1        0.154123   173763.200342
         9        11     1        0.154123   173763.200342
         9        12     1        0.155422   150314.924365
        10        45     1        0.109308   302835.769775
        10        46     1        0.109308   302835.769775
        10        47     1        0.109308   302835.769775
        11        48     1        0.109308   302835.769775
        11        49     1        0.109308   302835.769775
        11        50     1        0.109308   302835.769775
        12        13     1        0.145379   213693.305469
        12        51     1        0.109583   291806.062402
        12        52     1        0.109583   291806.062402
        13        14     1        0.137835   299697.182422
        13        53     1        0.101541   403143.671191
        14        15     1        0.141414   273727.219043
        14        19     1        0.143206   239944.355811
        15        16     1        0.139059   315198.718555
        15        54     1        0.108219   326426.593896
        16        17     1        0.139949   295338.636279
        16        23     1        0.142696   237147.429443
        17        18     1        0.139142   327036.803125
        17        55     1        0.108435   325045.112891
        18        19     1        0.140316   298630.088770
        18        56     1        0.108521   321518.003955
        19        20     1        0.148703   181870.568604
        20        21     1        0.138047   289820.833057
        20        22     1        0.124068   560318.246191
        21        57     1        0.101260   423336.706299
        21        58     1        0.101260   423336.706299
        23        24     1        0.137218   282400.259814
        24        25     1        0.139123   320398.303857
        24        32     1        0.149373   218328.750488
        25        26     1        0.145880   216355.753418
        26        27     1        0.123266   614080.756445
        26        28     1        0.153111   159545.401929
        28        29     1        0.154383   164738.730640
        28        59     1        0.109557   295667.707471
        28        60     1        0.109557   295667.707471
        29        30     1        0.153851   176623.471509
        29        31     1        0.153851   176623.471509
        29        32     1        0.154994   159007.360571
        30        61     1        0.109464   297956.215527
        30        62     1        0.109464   297956.215527
        30        63     1        0.109464   297956.215527
        31        64     1        0.109464   297956.215527
        31        65     1        0.109464   297956.215527
        31        66     1        0.109464   297956.215527
        32        67     1        0.109675   290693.665918
        32        68     1        0.109675   290693.665918

[ angles ]
;       ai        aj        ak funct           theta             cth
         1         2         3     1      127.512558      403.859585
         1         2        25     1      125.646835      512.309719
         2         1        33     1      111.034035      482.134751
         2         1        34     1      111.034035      482.134751
         2         1        35     1      111.034035      482.134751
         2         3         4     1      129.995514      404.356186
         2         3        23     1      108.079056      176.582440
         2        25        24     1      108.234268      388.611536
         2        25        26     1      130.480499      516.615659
         3         2        25     1      106.715492      317.970146
         3         4         5     1      112.880417      537.683199
         3         4        36     1      109.783371      500.229485
         3         4        37     1      109.783371      500.229421
         3        23        16     1      125.682678      428.159038
         3        23        24     1      109.378174      244.944116
         4         3        23     1      121.806541      531.884360
         4         5         6     1      112.853859      579.798553
         4         5        38     1      109.563499      476.241361
         4         5        39     1      109.563499      476.241361
         5         4        36     1      109.167152      484.809253
         5         4        37     1      109.167152      484.809253
         5         6         7     1      111.739967      721.805503
         5         6        40     1      111.879440      488.771846
         5         6        41     1      111.879440      488.771846
         6         5        38     1      109.366592      516.088222
         6         5        39     1      109.366592      516.088222
         6         7         8     1      115.905930      585.317570
         6         7        42     1      108.932777      499.628948
         6         7        69     1      108.932777      499.628948
         7         6        40     1      106.289528      558.833480
         7         6        41     1      106.289528      558.833480
         7         8         9     1      113.267921      627.058294
         7         8        43     1      106.135574      554.416199
         7         8        44     1      106.135574      554.416199
         8         7        42     1      108.529701      500.590580
         8         7        69     1      108.529701      500.590580
         8         9        10     1      109.644821      613.258742
         8         9        11     1      109.644821      613.258742
         8         9        12     1      108.645889      606.496644
         9         8        43     1      110.989914      454.434394
         9         8        44     1      110.989914      454.434394
         9        10        45     1      111.207298      487.762364
         9        10        46     1      111.207298      487.762364
         9        10        47     1      111.207298      487.762364
         9        11        48     1      111.207298      487.762364
         9        11        49     1      111.207298      487.762364
         9        11        50     1      111.207298      487.762364
         9        12        13     1      112.463707      525.866094
         9        12        51     1      108.869141      462.586413
         9        12        52     1      108.869141      462.586413
        10         9        11     1      109.828636      604.450802
        10         9        12     1      109.784912      603.545384
        11         9        12     1      109.784912      603.545384
        12        13        14     1      123.106705      477.795167
        12        13        53     1      116.368332      402.629909
        13        12        51     1      109.695885      467.585686
        13        12        52     1      109.695885      467.585686
        13        14        15     1      120.715866      573.331089
        13        14        19     1      121.071365      661.400790
        14        13        53     1      113.411537      472.550227
        14        15        16     1      121.231552      768.693104
        14        15        54     1      119.979660      426.643730
        14        19        18     1      118.890610      790.462404
        14        19        20     1      120.964516      735.329190
        15        14        19     1      117.981949      650.354075
        15        16        17     1      120.522682      623.041626
        15        16        23     1      119.486984      445.550448
        16        15        54     1      118.918152      419.914925
        16        17        18     1      118.805260      690.031593
        16        17        55     1      119.810989      440.505081
        16        23        24     1      125.077408      437.235342
        17        16        23     1      119.964706      505.331449
        17        18        19     1      122.097046      593.341457
        17        18        56     1      119.056595      418.362875
        18        17        55     1      120.906395      428.342522
        18        19        20     1      120.184692      563.576998
        19        18        56     1      118.687027      397.820474
        19        20        21     1      117.173302      544.000314
        19        20        22     1      123.203079      531.330780
        20        21        57     1      116.978172      454.410484
        20        21        58     1      116.978172      454.410484
        21        20        22     1      119.649353      682.291933
        23        24        25     1      107.981873      167.360000
        23        24        32     1      126.440628      538.406985
        24        25        26     1      121.426041      472.586075
        24        32        29     1      110.601151      620.670186
        24        32        67     1      110.436203      489.152030
        24        32        68     1      110.436203      489.152030
        25        24        32     1      125.733871      448.589907
        25        26        27     1      124.124985      547.724902
        25        26        28     1      114.799881      537.299377
        26        28        29     1      115.199318      704.315839
        26        28        59     1      107.090210      544.247386
        26        28        60     1      107.090210      544.247386
        27        26        28     1      120.796188      618.014710
        28        29        30     1      109.760399      618.351161
        28        29        31     1      109.760399      618.351161
        28        29        32     1      109.166458      568.282019
        29        28        59     1      110.158142      467.958336
        29        28        60     1      110.158142      467.958336
        29        30        61     1      111.054298      493.579016
        29        30        62     1      111.054298      493.579016
        29        30        63     1      111.054298      493.579016
        29        31        64     1      111.054298      493.579016
        29        31        65     1      111.054298      493.579016
        29        31        66     1      111.054298      493.579016
        29        32        67     1      109.639915      462.474912
        29        32        68     1      109.639915      462.474912
        30        29        31     1      109.435570      632.975178
        30        29        32     1      109.473282      583.164281
        31        29        32     1      109.473282      583.164281
        33         1        34     1      107.859253      356.842606
        33         1        35     1      107.859253      356.842606
        34         1        35     1      107.859253      356.842606
        36         4        37     1      106.219162      363.978792
        38         5        39     1      106.828064      361.475198
        40         6        41     1      108.554245      349.520287
        42         7        69     1      106.165833      404.378148
        43         8        44     1      108.433472      350.189296
        45        10        46     1      107.784103      361.430284
        45        10        47     1      107.784103      361.430284
        46        10        47     1      107.784103      361.430284
        48        11        49     1      107.784103      361.430284
        48        11        50     1      107.784103      361.430284
        49        11        50     1      107.784103      361.430284
        51        12        52     1      106.389023      357.009332
        57        21        58     1      117.099060      317.421354
        59        28        60     1      106.722084      359.234157
        61        30        62     1      107.812378      362.058625
        61        30        63     1      107.812378      362.058625
        62        30        63     1      107.812378      362.058625
        64        31        65     1      107.812378      362.058625
        64        31        66     1      107.812378      362.058625
        65        31        66     1      107.812378      362.058625
        67        32        68     1      106.299911      363.671421

[ dihedrals ] ; propers for gromacs 4.5 or higher, use funct 9
;       ai        aj        ak        al funct           phase               k        pn
         1         2         3         4     9        0.000000        0.054200         1
         1         2         3         4     9      180.000000       11.619327         2
         1         2         3         4     9        0.000000        0.458390         3
         1         2         3         4     9      180.000000       -0.129352         4
         1         2         3        23     9        0.000000        0.597599         1
         1         2         3        23     9      180.000000       19.445525         2
         1         2         3        23     9        0.000000        0.524847         3
         1         2         3        23     9      180.000000       -1.435111         4
         1         2        25        24     9        0.000000        0.891587         1
         1         2        25        24     9      180.000000       14.127658         2
         1         2        25        24     9        0.000000        0.555536         3
         1         2        25        24     9      180.000000       -0.696030         4
         1         2        25        26     9        0.000000        0.062412         1
         1         2        25        26     9      180.000000        6.839571         2
         1         2        25        26     9        0.000000        0.500795         3
         1         2        25        26     9      180.000000       -0.233578         4
         2         3         4         5     9        0.000000       -0.301478         1
         2         3         4         5     9      180.000000       -0.073794         2
         2         3         4         5     9        0.000000       -0.141422         3
         2         3         4         5     9      180.000000        0.012850         4
         2         3         4        36     9        0.000000        0.172156         1
         2         3         4        36     9      180.000000        0.018828         2
         2         3         4        36     9        0.000000       -0.136196         3
         2         3         4        36     9      180.000000        0.009208         4
         2         3         4        37     9        0.000000        0.172156         1
         2         3         4        37     9      180.000000        0.018828         2
         2         3         4        37     9        0.000000       -0.136196         3
         2         3         4        37     9      180.000000        0.009208         4
         2         3        23        16     9        0.000000        0.886620         1
         2         3        23        16     9      180.000000        3.899442         2
         2         3        23        16     9        0.000000        0.809074         3
         2         3        23        16     9      180.000000        0.097690         4
         2         3        23        24     9        0.000000        0.129226         1
         2         3        23        24     9      180.000000       23.002444         2
         2         3        23        24     9        0.000000       -6.927652         3
         2         3        23        24     9      180.000000       -0.282099         4
         2        25        24        23     9        0.000000       -0.095283         1
         2        25        24        23     9      180.000000       25.846793         2
         2        25        24        23     9        0.000000       -7.901115         3
         2        25        24        23     9      180.000000       -0.317704         4
         2        25        24        32     9        0.000000        0.451103         1
         2        25        24        32     9      180.000000       15.819419         2
         2        25        24        32     9        0.000000       -1.735378         3
         2        25        24        32     9      180.000000       -0.503683         4
         2        25        26        27     9        0.000000       -1.646476         1
         2        25        26        27     9      180.000000        8.040231         2
         2        25        26        27     9        0.000000       -0.168030         3
         2        25        26        27     9      180.000000       -0.215481         4
         2        25        26        28     9        0.000000       -0.588539         1
         2        25        26        28     9      180.000000        5.416350         2
         2        25        26        28     9        0.000000        0.007341         3
         2        25        26        28     9      180.000000        0.038506         4
         3         2         1        33     9        0.000000       -0.051816         1
         3         2         1        33     9      180.000000        0.029539         2
         3         2         1        33     9        0.000000       -0.137558         3
         3         2         1        33     9      180.000000        0.026375         4
         3         2         1        34     9        0.000000       -0.051816         1
         3         2         1        34     9      180.000000        0.029539         2
         3         2         1        34     9        0.000000       -0.137558         3
         3         2         1        34     9      180.000000        0.026375         4
         3         2         1        35     9        0.000000       -0.051816         1
         3         2         1        35     9      180.000000        0.029539         2
         3         2         1        35     9        0.000000       -0.137558         3
         3         2         1        35     9      180.000000        0.026375         4
         3         2        25        24     9        0.000000        0.140952         1
         3         2        25        24     9      180.000000       26.126382         2
         3         2        25        24     9        0.000000       -8.506358         3
         3         2        25        24     9      180.000000       -0.113619         4
         3         2        25        26     9        0.000000       -0.138936         1
         3         2        25        26     9      180.000000        4.452583         2
         3         2        25        26     9        0.000000       -0.454337         3
         3         2        25        26     9      180.000000        0.195315         4
         3         4         5         6     9        0.000000        1.563296         1
         3         4         5         6     9      180.000000       -0.343034         2
         3         4         5         6     9        0.000000        0.597521         3
         3         4         5         6     9      180.000000        0.039214         4
         3         4         5        38     9        0.000000        0.094453         1
         3         4         5        38     9      180.000000        0.023080         2
         3         4         5        38     9        0.000000        0.593905         3
         3         4         5        38     9      180.000000        0.020127         4
         3         4         5        39     9        0.000000        0.094453         1
         3         4         5        39     9      180.000000        0.023080         2
         3         4         5        39     9        0.000000        0.593905         3
         3         4         5        39     9      180.000000        0.020127         4
         3        23        16        15     9        0.000000       -0.348876         1
         3        23        16        15     9      180.000000        4.588828         2
         3        23        16        15     9        0.000000       -0.037155         3
         3        23        16        15     9      180.000000        0.413749         4
         3        23        16        17     9        0.000000        0.060005         1
         3        23        16        17     9      180.000000        4.729350         2
         3        23        16        17     9        0.000000        0.163550         3
         3        23        16        17     9      180.000000        0.435099         4
         3        23        24        25     9        0.000000        0.092992         1
         3        23        24        25     9      180.000000       28.324824         2
         3        23        24        25     9        0.000000       -7.168871         3
         3        23        24        25     9      180.000000       -0.533887         4
         3        23        24        32     9        0.000000        1.012935         1
         3        23        24        32     9      180.000000        9.522836         2
         3        23        24        32     9        0.000000        0.806163         3
         3        23        24        32     9      180.000000       -0.291266         4
         4         3         2        25     9        0.000000        0.603203         1
         4         3         2        25     9      180.000000       17.402337         2
         4         3         2        25     9        0.000000        0.283012         3
         4         3         2        25     9      180.000000       -1.049851         4
         4         3        23        16     9        0.000000       -0.123013         1
         4         3        23        16     9      180.000000        3.190655         2
         4         3        23        16     9        0.000000        0.504915         3
         4         3        23        16     9      180.000000       -0.020778         4
         4         3        23        24     9        0.000000        0.818872         1
         4         3        23        24     9      180.000000        7.076244         2
         4         3        23        24     9        0.000000        0.586903         3
         4         3        23        24     9      180.000000       -0.030703         4
         4         5         6         7     9        0.000000        1.810762         1
         4         5         6         7     9      180.000000       -0.468176         2
         4         5         6         7     9        0.000000        0.645605         3
         4         5         6         7     9      180.000000       -0.058245         4
         4         5         6        40     9        0.000000       -0.173157         1
         4         5         6        40     9      180.000000        0.065182         2
         4         5         6        40     9        0.000000        0.732696         3
         4         5         6        40     9      180.000000        0.052481         4
         4         5         6        41     9        0.000000       -0.173157         1
         4         5         6        41     9      180.000000        0.065182         2
         4         5         6        41     9        0.000000        0.732696         3
         4         5         6        41     9      180.000000        0.052481         4
         5         4         3        23     9        0.000000        1.041192         1
         5         4         3        23     9      180.000000       -0.406807         2
         5         4         3        23     9        0.000000        0.538052         3
         5         4         3        23     9      180.000000       -0.027255         4
         5         6         7         8     9        0.000000        0.648458         1
         5         6         7         8     9      180.000000        0.363499         2
         5         6         7         8     9        0.000000        0.628421         3
         5         6         7         8     9      180.000000        0.045441         4
         5         6         7        42     9        0.000000       -0.589640         1
         5         6         7        42     9      180.000000       -0.038130         2
         5         6         7        42     9        0.000000        0.464251         3
         5         6         7        42     9      180.000000        0.013868         4
         5         6         7        69     9        0.000000       -0.589640         1
         5         6         7        69     9      180.000000       -0.038130         2
         5         6         7        69     9        0.000000        0.464251         3
         5         6         7        69     9      180.000000        0.013868         4
         6         5         4        36     9        0.000000       -0.407571         1
         6         5         4        36     9      180.000000        0.037958         2
         6         5         4        36     9        0.000000        0.530836         3
         6         5         4        36     9      180.000000        0.042488         4
         6         5         4        37     9        0.000000       -0.407571         1
         6         5         4        37     9      180.000000        0.037958         2
         6         5         4        37     9        0.000000        0.530836         3
         6         5         4        37     9      180.000000        0.042488         4
         6         7         8         9     9        0.000000        1.860308         1
         6         7         8         9     9      180.000000       -0.111640         2
         6         7         8         9     9        0.000000        0.674203         3
         6         7         8         9     9      180.000000        0.093972         4
         6         7         8        43     9        0.000000       -0.324563         1
         6         7         8        43     9      180.000000        0.156192         2
         6         7         8        43     9        0.000000        0.706774         3
         6         7         8        43     9      180.000000       -0.014267         4
         6         7         8        44     9        0.000000       -0.324563         1
         6         7         8        44     9      180.000000        0.156192         2
         6         7         8        44     9        0.000000        0.706774         3
         6         7         8        44     9      180.000000       -0.014267         4
         7         6         5        38     9        0.000000       -0.146817         1
         7         6         5        38     9      180.000000        0.055363         2
         7         6         5        38     9        0.000000        0.619188         3
         7         6         5        38     9      180.000000        0.007194         4
         7         6         5        39     9        0.000000       -0.146817         1
         7         6         5        39     9      180.000000        0.055363         2
         7         6         5        39     9        0.000000        0.619188         3
         7         6         5        39     9      180.000000        0.007194         4
         7         8         9        10     9        0.000000        0.476096         1
         7         8         9        10     9      180.000000        0.344297         2
         7         8         9        10     9        0.000000        0.846120         3
         7         8         9        10     9      180.000000       -0.125419         4
         7         8         9        11     9        0.000000        0.476096         1
         7         8         9        11     9      180.000000        0.344297         2
         7         8         9        11     9        0.000000        0.846120         3
         7         8         9        11     9      180.000000       -0.125419         4
         7         8         9        12     9        0.000000        0.110448         1
         7         8         9        12     9      180.000000       -1.209154         2
         7         8         9        12     9        0.000000        0.662341         3
         7         8         9        12     9      180.000000       -0.120967         4
         8         7         6        40     9        0.000000       -0.103678         1
         8         7         6        40     9      180.000000        0.120464         2
         8         7         6        40     9        0.000000        0.674802         3
         8         7         6        40     9      180.000000       -0.021139         4
         8         7         6        41     9        0.000000       -0.103678         1
         8         7         6        41     9      180.000000        0.120464         2
         8         7         6        41     9        0.000000        0.674802         3
         8         7         6        41     9      180.000000       -0.021139         4
         8         9        10        45     9        0.000000       -0.308390         1
         8         9        10        45     9      180.000000        0.055733         2
         8         9        10        45     9        0.000000        0.441103         3
         8         9        10        45     9      180.000000        0.028646         4
         8         9        10        46     9        0.000000       -0.308390         1
         8         9        10        46     9      180.000000        0.055733         2
         8         9        10        46     9        0.000000        0.441103         3
         8         9        10        46     9      180.000000        0.028646         4
         8         9        10        47     9        0.000000       -0.308390         1
         8         9        10        47     9      180.000000        0.055733         2
         8         9        10        47     9        0.000000        0.441103         3
         8         9        10        47     9      180.000000        0.028646         4
         8         9        11        48     9        0.000000       -0.308390         1
         8         9        11        48     9      180.000000        0.055733         2
         8         9        11        48     9        0.000000        0.441103         3
         8         9        11        48     9      180.000000        0.028646         4
         8         9        11        49     9        0.000000       -0.308390         1
         8         9        11        49     9      180.000000        0.055733         2
         8         9        11        49     9        0.000000        0.441103         3
         8         9        11        49     9      180.000000        0.028646         4
         8         9        11        50     9        0.000000       -0.308390         1
         8         9        11        50     9      180.000000        0.055733         2
         8         9        11        50     9        0.000000        0.441103         3
         8         9        11        50     9      180.000000        0.028646         4
         8         9        12        13     9        0.000000        3.584310         1
         8         9        12        13     9      180.000000       -0.100812         2
         8         9        12        13     9        0.000000        0.653369         3
         8         9        12        13     9      180.000000       -0.086900         4
         8         9        12        51     9        0.000000       -0.552609         1
         8         9        12        51     9      180.000000        0.024003         2
         8         9        12        51     9        0.000000        0.601901         3
         8         9        12        51     9      180.000000        0.031505         4
         8         9        12        52     9        0.000000       -0.552609         1
         8         9        12        52     9      180.000000        0.024003         2
         8         9        12        52     9        0.000000        0.601901         3
         8         9        12        52     9      180.000000        0.031505         4
         9         8         7        42     9        0.000000       -0.404954         1
         9         8         7        42     9      180.000000       -0.009507         2
         9         8         7        42     9        0.000000        0.453636         3
         9         8         7        42     9      180.000000       -0.012181         4
         9         8         7        69     9        0.000000       -0.404954         1
         9         8         7        69     9      180.000000       -0.009507         2
         9         8         7        69     9        0.000000        0.453636         3
         9         8         7        69     9      180.000000       -0.012181         4
         9        12        13        14     9        0.000000        0.986133         1
         9        12        13        14     9      180.000000       -0.534546         2
         9        12        13        14     9        0.000000        0.533422         3
         9        12        13        14     9      180.000000       -0.020906         4
         9        12        13        53     9        0.000000       -0.469773         1
         9        12        13        53     9      180.000000       -2.844439         2
         9        12        13        53     9        0.000000       -0.013384         3
         9        12        13        53     9      180.000000       -0.185562         4
        10         9         8        43     9        0.000000       -0.068343         1
        10         9         8        43     9      180.000000       -0.000277         2
        10         9         8        43     9        0.000000        0.815718         3
        10         9         8        43     9      180.000000        0.028865         4
        10         9         8        44     9        0.000000       -0.068343         1
        10         9         8        44     9      180.000000       -0.000277         2
        10         9         8        44     9        0.000000        0.815718         3
        10         9         8        44     9      180.000000        0.028865         4
        10         9        11        48     9        0.000000       -0.071154         1
        10         9        11        48     9      180.000000       -0.011786         2
        10         9        11        48     9        0.000000        0.531190         3
        10         9        11        48     9      180.000000        0.016020         4
        10         9        11        49     9        0.000000       -0.071154         1
        10         9        11        49     9      180.000000       -0.011786         2
        10         9        11        49     9        0.000000        0.531190         3
        10         9        11        49     9      180.000000        0.016020         4
        10         9        11        50     9        0.000000       -0.071154         1
        10         9        11        50     9      180.000000       -0.011786         2
        10         9        11        50     9        0.000000        0.531190         3
        10         9        11        50     9      180.000000        0.016020         4
        10         9        12        13     9        0.000000        0.241912         1
        10         9        12        13     9      180.000000        0.781552         2
        10         9        12        13     9        0.000000        0.730658         3
        10         9        12        13     9      180.000000       -0.086246         4
        10         9        12        51     9        0.000000       -0.087558         1
        10         9        12        51     9      180.000000       -0.016518         2
        10         9        12        51     9        0.000000        0.728901         3
        10         9        12        51     9      180.000000        0.042742         4
        10         9        12        52     9        0.000000       -0.087558         1
        10         9        12        52     9      180.000000       -0.016518         2
        10         9        12        52     9        0.000000        0.728901         3
        10         9        12        52     9      180.000000        0.042742         4
        11         9         8        43     9        0.000000       -0.068343         1
        11         9         8        43     9      180.000000       -0.000277         2
        11         9         8        43     9        0.000000        0.815718         3
        11         9         8        43     9      180.000000        0.028865         4
        11         9         8        44     9        0.000000       -0.068343         1
        11         9         8        44     9      180.000000       -0.000277         2
        11         9         8        44     9        0.000000        0.815718         3
        11         9         8        44     9      180.000000        0.028865         4
        11         9        10        45     9        0.000000       -0.071154         1
        11         9        10        45     9      180.000000       -0.011786         2
        11         9        10        45     9        0.000000        0.531190         3
        11         9        10        45     9      180.000000        0.016020         4
        11         9        10        46     9        0.000000       -0.071154         1
        11         9        10        46     9      180.000000       -0.011786         2
        11         9        10        46     9        0.000000        0.531190         3
        11         9        10        46     9      180.000000        0.016020         4
        11         9        10        47     9        0.000000       -0.071154         1
        11         9        10        47     9      180.000000       -0.011786         2
        11         9        10        47     9        0.000000        0.531190         3
        11         9        10        47     9      180.000000        0.016020         4
        11         9        12        13     9        0.000000        0.241912         1
        11         9        12        13     9      180.000000        0.781552         2
        11         9        12        13     9        0.000000        0.730658         3
        11         9        12        13     9      180.000000       -0.086246         4
        11         9        12        51     9        0.000000       -0.087558         1
        11         9        12        51     9      180.000000       -0.016518         2
        11         9        12        51     9        0.000000        0.728901         3
        11         9        12        51     9      180.000000        0.042742         4
        11         9        12        52     9        0.000000       -0.087558         1
        11         9        12        52     9      180.000000       -0.016518         2
        11         9        12        52     9        0.000000        0.728901         3
        11         9        12        52     9      180.000000        0.042742         4
        12         9         8        43     9        0.000000        0.237730         1
        12         9         8        43     9      180.000000        0.069954         2
        12         9         8        43     9        0.000000        0.716306         3
        12         9         8        43     9      180.000000        0.016893         4
        12         9         8        44     9        0.000000        0.237730         1
        12         9         8        44     9      180.000000        0.069954         2
        12         9         8        44     9        0.000000        0.716306         3
        12         9         8        44     9      180.000000        0.016893         4
        12         9        10        45     9        0.000000       -0.033113         1
        12         9        10        45     9      180.000000        0.035702         2
        12         9        10        45     9        0.000000        0.409966         3
        12         9        10        45     9      180.000000        0.015590         4
        12         9        10        46     9        0.000000       -0.033113         1
        12         9        10        46     9      180.000000        0.035702         2
        12         9        10        46     9        0.000000        0.409966         3
        12         9        10        46     9      180.000000        0.015590         4
        12         9        10        47     9        0.000000       -0.033113         1
        12         9        10        47     9      180.000000        0.035702         2
        12         9        10        47     9        0.000000        0.409966         3
        12         9        10        47     9      180.000000        0.015590         4
        12         9        11        48     9        0.000000       -0.033113         1
        12         9        11        48     9      180.000000        0.035702         2
        12         9        11        48     9        0.000000        0.409966         3
        12         9        11        48     9      180.000000        0.015590         4
        12         9        11        49     9        0.000000       -0.033113         1
        12         9        11        49     9      180.000000        0.035702         2
        12         9        11        49     9        0.000000        0.409966         3
        12         9        11        49     9      180.000000        0.015590         4
        12         9        11        50     9        0.000000       -0.033113         1
        12         9        11        50     9      180.000000        0.035702         2
        12         9        11        50     9        0.000000        0.409966         3
        12         9        11        50     9      180.000000        0.015590         4
        12        13        14        15     9        0.000000       -0.243828         1
        12        13        14        15     9      180.000000        5.492097         2
        12        13        14        15     9        0.000000       -1.228536         3
        12        13        14        15     9      180.000000       -0.164364         4
        12        13        14        19     9        0.000000       -0.556697         1
        12        13        14        19     9      180.000000        5.876381         2
        12        13        14        19     9        0.000000        0.178793         3
        12        13        14        19     9      180.000000       -0.296198         4
        13        14        15        16     9        0.000000        0.177537         1
        13        14        15        16     9      180.000000       16.121548         2
        13        14        15        16     9        0.000000       -0.032393         3
        13        14        15        16     9      180.000000       -0.455428         4
        13        14        15        54     9        0.000000       -0.162550         1
        13        14        15        54     9      180.000000       14.145143         2
        13        14        15        54     9        0.000000       -0.144138         3
        13        14        15        54     9      180.000000        0.207572         4
        13        14        19        18     9        0.000000       -0.127094         1
        13        14        19        18     9      180.000000       13.514141         2
        13        14        19        18     9        0.000000       -0.007903         3
        13        14        19        18     9      180.000000       -0.279797         4
        13        14        19        20     9        0.000000       -0.628439         1
        13        14        19        20     9      180.000000       12.571933         2
        13        14        19        20     9        0.000000       -0.170682         3
        13        14        19        20     9      180.000000       -0.665708         4
        14        13        12        51     9        0.000000       -0.374288         1
        14        13        12        51     9      180.000000        0.311596         2
        14        13        12        51     9        0.000000        0.643560         3
        14        13        12        51     9      180.000000       -0.066946         4
        14        13        12        52     9        0.000000       -0.374288         1
        14        13        12        52     9      180.000000        0.311596         2
        14        13        12        52     9        0.000000        0.643560         3
        14        13        12        52     9      180.000000       -0.066946         4
        14        15        16        17     9        0.000000       -0.270024         1
        14        15        16        17     9      180.000000       17.048159         2
        14        15        16        17     9        0.000000       -1.347281         3
        14        15        16        17     9      180.000000       -0.411525         4
        14        15        16        23     9        0.000000        0.613440         1
        14        15        16        23     9      180.000000       19.019038         2
        14        15        16        23     9        0.000000        0.697077         3
        14        15        16        23     9      180.000000       -0.824227         4
        14        19        18        17     9        0.000000        0.027543         1
        14        19        18        17     9      180.000000       18.310814         2
        14        19        18        17     9        0.000000       -1.599567         3
        14        19        18        17     9      180.000000       -0.419402         4
        14        19        18        56     9        0.000000       -0.018291         1
        14        19        18        56     9      180.000000       14.051178         2
        14        19        18        56     9        0.000000       -0.644958         3
        14        19        18        56     9      180.000000       -0.022041         4
        14        19        20        21     9        0.000000        0.873371         1
        14        19        20        21     9      180.000000        5.137547         2
        14        19        20        21     9        0.000000        0.945110         3
        14        19        20        21     9      180.000000       -0.314754         4
        14        19        20        22     9        0.000000       -1.794949         1
        14        19        20        22     9      180.000000        3.072860         2
        14        19        20        22     9        0.000000        0.177509         3
        14        19        20        22     9      180.000000        0.207043         4
        15        14        13        53     9        0.000000       -0.076308         1
        15        14        13        53     9      180.000000        5.533103         2
        15        14        13        53     9        0.000000       -0.171049         3
        15        14        13        53     9      180.000000       -0.346782         4
        15        14        19        18     9        0.000000        0.071924         1
        15        14        19        18     9      180.000000       11.717546         2
        15        14        19        18     9        0.000000       -0.581780         3
        15        14        19        18     9      180.000000       -0.183558         4
        15        14        19        20     9        0.000000       -0.528883         1
        15        14        19        20     9      180.000000       10.181939         2
        15        14        19        20     9        0.000000       -0.295050         3
        15        14        19        20     9      180.000000       -0.267429         4
        15        16        17        18     9        0.000000       -0.145519         1
        15        16        17        18     9      180.000000       16.373248         2
        15        16        17        18     9        0.000000       -1.047992         3
        15        16        17        18     9      180.000000       -0.154882         4
        15        16        17        55     9        0.000000       -0.046088         1
        15        16        17        55     9      180.000000       12.892335         2
        15        16        17        55     9        0.000000       -0.523506         3
        15        16        17        55     9      180.000000        0.163166         4
        15        16        23        24     9        0.000000       -0.043214         1
        15        16        23        24     9      180.000000        4.357357         2
        15        16        23        24     9        0.000000       -0.136817         3
        15        16        23        24     9      180.000000        0.483694         4
        16        15        14        19     9        0.000000       -0.124538         1
        16        15        14        19     9      180.000000       14.554793         2
        16        15        14        19     9        0.000000       -0.793345         3
        16        15        14        19     9      180.000000       -0.325764         4
        16        17        18        19     9        0.000000       -0.136562         1
        16        17        18        19     9      180.000000       19.170728         2
        16        17        18        19     9        0.000000       -2.009435         3
        16        17        18        19     9      180.000000       -0.514029         4
        16        17        18        56     9        0.000000       -0.022668         1
        16        17        18        56     9      180.000000       15.205524         2
        16        17        18        56     9        0.000000       -0.688212         3
        16        17        18        56     9      180.000000        0.047751         4
        16        23        24        25     9        0.000000        0.354015         1
        16        23        24        25     9      180.000000        7.972866         2
        16        23        24        25     9        0.000000        0.560983         3
        16        23        24        25     9      180.000000        0.033220         4
        16        23        24        32     9        0.000000       -0.368433         1
        16        23        24        32     9      180.000000        4.431913         2
        16        23        24        32     9        0.000000        0.505224         3
        16        23        24        32     9      180.000000       -0.080741         4
        17        16        15        54     9        0.000000       -0.093913         1
        17        16        15        54     9      180.000000       13.930442         2
        17        16        15        54     9        0.000000       -0.476015         3
        17        16        15        54     9      180.000000        0.110567         4
        17        16        23        24     9        0.000000        0.029575         1
        17        16        23        24     9      180.000000        4.479553         2
        17        16        23        24     9        0.000000        0.058389         3
        17        16        23        24     9      180.000000        0.525648         4
        17        18        19        20     9        0.000000        0.012336         1
        17        18        19        20     9      180.000000       14.246986         2
        17        18        19        20     9        0.000000        0.115420         3
        17        18        19        20     9      180.000000       -0.235514         4
        18        17        16        23     9        0.000000        0.320702         1
        18        17        16        23     9      180.000000       18.669482         2
        18        17        16        23     9        0.000000        0.310013         3
        18        17        16        23     9      180.000000       -0.495052         4
        18        19        20        21     9        0.000000        1.614439         1
        18        19        20        21     9      180.000000        3.538125         2
        18        19        20        21     9        0.000000        1.241830         3
        18        19        20        21     9      180.000000       -0.418496         4
        18        19        20        22     9        0.000000       -1.819483         1
        18        19        20        22     9      180.000000        2.589796         2
        18        19        20        22     9        0.000000       -0.196544         3
        18        19        20        22     9      180.000000        0.137992         4
        19        14        13        53     9        0.000000        4.590742         1
        19        14        13        53     9      180.000000        4.684593         2
        19        14        13        53     9        0.000000       -1.034469         3
        19        14        13        53     9      180.000000       -0.425890         4
        19        14        15        54     9        0.000000        0.133526         1
        19        14        15        54     9      180.000000       12.175078         2
        19        14        15        54     9        0.000000       -0.314977         3
        19        14        15        54     9      180.000000       -0.063197         4
        19        18        17        55     9        0.000000        0.091412         1
        19        18        17        55     9      180.000000       15.640681         2
        19        18        17        55     9        0.000000       -0.663725         3
        19        18        17        55     9      180.000000       -0.114050         4
        19        20        21        57     9        0.000000        0.542425         1
        19        20        21        57     9      180.000000        7.492526         2
        19        20        21        57     9        0.000000        0.907308         3
        19        20        21        57     9      180.000000       -1.685615         4
        19        20        21        58     9        0.000000        0.542425         1
        19        20        21        58     9      180.000000        7.492526         2
        19        20        21        58     9        0.000000        0.907308         3
        19        20        21        58     9      180.000000       -1.685615         4
        20        19        18        56     9        0.000000        0.203513         1
        20        19        18        56     9      180.000000       12.352373         2
        20        19        18        56     9        0.000000       -0.202987         3
        20        19        18        56     9      180.000000        0.033140         4
        22        20        21        57     9        0.000000        0.574064         1
        22        20        21        57     9      180.000000        9.284841         2
        22        20        21        57     9        0.000000       -0.076918         3
        22        20        21        57     9      180.000000       -1.208096         4
        22        20        21        58     9        0.000000        0.574064         1
        22        20        21        58     9      180.000000        9.284841         2
        22        20        21        58     9        0.000000       -0.076918         3
        22        20        21        58     9      180.000000       -1.208096         4
        23         3         2        25     9        0.000000       -0.334253         1
        23         3         2        25     9      180.000000       33.887098         2
        23         3         2        25     9        0.000000       -6.713509         3
        23         3         2        25     9      180.000000       -0.327641         4
        23         3         4        36     9        0.000000       -0.016686         1
        23         3         4        36     9      180.000000        0.070435         2
        23         3         4        36     9        0.000000        0.404075         3
        23         3         4        36     9      180.000000        0.036922         4
        23         3         4        37     9        0.000000       -0.016686         1
        23         3         4        37     9      180.000000        0.070435         2
        23         3         4        37     9        0.000000        0.404075         3
        23         3         4        37     9      180.000000        0.036922         4
        23        16        15        54     9        0.000000        0.156542         1
        23        16        15        54     9      180.000000       14.838593         2
        23        16        15        54     9        0.000000        0.089286         3
        23        16        15        54     9      180.000000        0.155513         4
        23        16        17        55     9        0.000000       -0.054690         1
        23        16        17        55     9      180.000000       14.449594         2
        23        16        17        55     9        0.000000        0.055858         3
        23        16        17        55     9      180.000000        0.141820         4
        23        24        25        26     9        0.000000        0.218667         1
        23        24        25        26     9      180.000000       10.310616         2
        23        24        25        26     9        0.000000       -2.109811         3
        23        24        25        26     9      180.000000        0.062572         4
        23        24        32        29     9        0.000000       -1.129449         1
        23        24        32        29     9      180.000000       -0.086990         2
        23        24        32        29     9        0.000000        0.339420         3
        23        24        32        29     9      180.000000        0.085040         4
        23        24        32        67     9        0.000000        0.089415         1
        23        24        32        67     9      180.000000        0.153442         2
        23        24        32        67     9        0.000000        0.364102         3
        23        24        32        67     9      180.000000       -0.016224         4
        23        24        32        68     9        0.000000        0.089415         1
        23        24        32        68     9      180.000000        0.153442         2
        23        24        32        68     9        0.000000        0.364102         3
        23        24        32        68     9      180.000000       -0.016224         4
        24        25        26        27     9        0.000000        1.752551         1
        24        25        26        27     9      180.000000        8.157149         2
        24        25        26        27     9        0.000000        0.250450         3
        24        25        26        27     9      180.000000       -0.705305         4
        24        25        26        28     9        0.000000       -0.556122         1
        24        25        26        28     9      180.000000        4.573895         2
        24        25        26        28     9        0.000000       -0.448770         3
        24        25        26        28     9      180.000000       -0.026936         4
        24        32        29        28     9        0.000000        0.214400         1
        24        32        29        28     9      180.000000       -0.498465         2
        24        32        29        28     9        0.000000        0.288957         3
        24        32        29        28     9      180.000000        0.061365         4
        24        32        29        30     9        0.000000       -0.828198         1
        24        32        29        30     9      180.000000        0.355442         2
        24        32        29        30     9        0.000000        0.482821         3
        24        32        29        30     9      180.000000        0.093299         4
        24        32        29        31     9        0.000000       -0.828198         1
        24        32        29        31     9      180.000000        0.355442         2
        24        32        29        31     9        0.000000        0.482821         3
        24        32        29        31     9      180.000000        0.093299         4
        25         2         1        33     9        0.000000       -0.010724         1
        25         2         1        33     9      180.000000       -0.012504         2
        25         2         1        33     9        0.000000        0.127677         3
        25         2         1        33     9      180.000000        0.026680         4
        25         2         1        34     9        0.000000       -0.010724         1
        25         2         1        34     9      180.000000       -0.012504         2
        25         2         1        34     9        0.000000        0.127677         3
        25         2         1        34     9      180.000000        0.026680         4
        25         2         1        35     9        0.000000       -0.010724         1
        25         2         1        35     9      180.000000       -0.012504         2
        25         2         1        35     9        0.000000        0.127677         3
        25         2         1        35     9      180.000000        0.026680         4
        25        24        32        29     9        0.000000       -1.521843         1
        25        24        32        29     9      180.000000        0.432320         2
        25        24        32        29     9        0.000000       -0.328220         3
        25        24        32        29     9      180.000000        0.236379         4
        25        24        32        67     9        0.000000        0.098462         1
        25        24        32        67     9      180.000000       -0.211546         2
        25        24        32        67     9        0.000000       -0.350147         3
        25        24        32        67     9      180.000000        0.082928         4
        25        24        32        68     9        0.000000        0.098462         1
        25        24        32        68     9      180.000000       -0.211546         2
        25        24        32        68     9        0.000000       -0.350147         3
        25        24        32        68     9      180.000000        0.082928         4
        25        26        28        29     9        0.000000        1.064535         1
        25        26        28        29     9      180.000000       -0.987190         2
        25        26        28        29     9        0.000000        0.066600         3
        25        26        28        29     9      180.000000        0.379994         4
        25        26        28        59     9        0.000000        0.050069         1
        25        26        28        59     9      180.000000       -0.115566         2
        25        26        28        59     9        0.000000        0.060045         3
        25        26        28        59     9      180.000000        0.032098         4
        25        26        28        60     9        0.000000        0.050069         1
        25        26        28        60     9      180.000000       -0.115566         2
        25        26        28        60     9        0.000000        0.060045         3
        25        26        28        60     9      180.000000        0.032098         4
        26        25        24        32     9        0.000000        0.192355         1
        26        25        24        32     9      180.000000       11.303776         2
        26        25        24        32     9        0.000000       -0.592314         3
        26        25        24        32     9      180.000000       -0.099490         4
        26        28        29        30     9        0.000000       -0.104603         1
        26        28        29        30     9      180.000000        0.124393         2
        26        28        29        30     9        0.000000        0.169661         3
        26        28        29        30     9      180.000000       -0.093965         4
        26        28        29        31     9        0.000000       -0.104603         1
        26        28        29        31     9      180.000000        0.124393         2
        26        28        29        31     9        0.000000        0.169661         3
        26        28        29        31     9      180.000000       -0.093965         4
        26        28        29        32     9        0.000000        6.772130         1
        26        28        29        32     9      180.000000       -2.558616         2
        26        28        29        32     9        0.000000       -1.043341         3
        26        28        29        32     9      180.000000        0.513638         4
        27        26        28        29     9        0.000000        0.211527         1
        27        26        28        29     9      180.000000        0.156391         2
        27        26        28        29     9        0.000000       -0.247366         3
        27        26        28        29     9      180.000000        0.159356         4
        27        26        28        59     9        0.000000        0.059162         1
        27        26        28        59     9      180.000000        0.179902         2
        27        26        28        59     9        0.000000       -0.274928         3
        27        26        28        59     9      180.000000        0.040109         4
        27        26        28        60     9        0.000000        0.059162         1
        27        26        28        60     9      180.000000        0.179902         2
        27        26        28        60     9        0.000000       -0.274928         3
        27        26        28        60     9      180.000000        0.040109         4
        28        29        30        61     9        0.000000       -0.025782         1
        28        29        30        61     9      180.000000       -0.024588         2
        28        29        30        61     9        0.000000        0.455338         3
        28        29        30        61     9      180.000000        0.008397         4
        28        29        30        62     9        0.000000       -0.025782         1
        28        29        30        62     9      180.000000       -0.024588         2
        28        29        30        62     9        0.000000        0.455338         3
        28        29        30        62     9      180.000000        0.008397         4
        28        29        30        63     9        0.000000       -0.025782         1
        28        29        30        63     9      180.000000       -0.024588         2
        28        29        30        63     9        0.000000        0.455338         3
        28        29        30        63     9      180.000000        0.008397         4
        28        29        31        64     9        0.000000       -0.025782         1
        28        29        31        64     9      180.000000       -0.024588         2
        28        29        31        64     9        0.000000        0.455338         3
        28        29        31        64     9      180.000000        0.008397         4
        28        29        31        65     9        0.000000       -0.025782         1
        28        29        31        65     9      180.000000       -0.024588         2
        28        29        31        65     9        0.000000        0.455338         3
        28        29        31        65     9      180.000000        0.008397         4
        28        29        31        66     9        0.000000       -0.025782         1
        28        29        31        66     9      180.000000       -0.024588         2
        28        29        31        66     9        0.000000        0.455338         3
        28        29        31        66     9      180.000000        0.008397         4
        28        29        32        67     9        0.000000       -0.036867         1
        28        29        32        67     9      180.000000        0.010855         2
        28        29        32        67     9        0.000000        0.237452         3
        28        29        32        67     9      180.000000        0.034530         4
        28        29        32        68     9        0.000000       -0.036867         1
        28        29        32        68     9      180.000000        0.010855         2
        28        29        32        68     9        0.000000        0.237452         3
        28        29        32        68     9      180.000000        0.034530         4
        30        29        28        59     9        0.000000       -0.016516         1
        30        29        28        59     9      180.000000       -0.035482         2
        30        29        28        59     9        0.000000        0.328119         3
        30        29        28        59     9      180.000000       -0.003629         4
        30        29        28        60     9        0.000000       -0.016516         1
        30        29        28        60     9      180.000000       -0.035482         2
        30        29        28        60     9        0.000000        0.328119         3
        30        29        28        60     9      180.000000       -0.003629         4
        30        29        31        64     9        0.000000       -0.078900         1
        30        29        31        64     9      180.000000       -0.013010         2
        30        29        31        64     9        0.000000        0.523327         3
        30        29        31        64     9      180.000000        0.025674         4
        30        29        31        65     9        0.000000       -0.078900         1
        30        29        31        65     9      180.000000       -0.013010         2
        30        29        31        65     9        0.000000        0.523327         3
        30        29        31        65     9      180.000000        0.025674         4
        30        29        31        66     9        0.000000       -0.078900         1
        30        29        31        66     9      180.000000       -0.013010         2
        30        29        31        66     9        0.000000        0.523327         3
        30        29        31        66     9      180.000000        0.025674         4
        30        29        32        67     9        0.000000       -0.006401         1
        30        29        32        67     9      180.000000       -0.007111         2
        30        29        32        67     9        0.000000        0.430489         3
        30        29        32        67     9      180.000000       -0.004178         4
        30        29        32        68     9        0.000000       -0.006401         1
        30        29        32        68     9      180.000000       -0.007111         2
        30        29        32        68     9        0.000000        0.430489         3
        30        29        32        68     9      180.000000       -0.004178         4
        31        29        28        59     9        0.000000       -0.016516         1
        31        29        28        59     9      180.000000       -0.035482         2
        31        29        28        59     9        0.000000        0.328119         3
        31        29        28        59     9      180.000000       -0.003629         4
        31        29        28        60     9        0.000000       -0.016516         1
        31        29        28        60     9      180.000000       -0.035482         2
        31        29        28        60     9        0.000000        0.328119         3
        31        29        28        60     9      180.000000       -0.003629         4
        31        29        30        61     9        0.000000       -0.078900         1
        31        29        30        61     9      180.000000       -0.013010         2
        31        29        30        61     9        0.000000        0.523327         3
        31        29        30        61     9      180.000000        0.025674         4
        31        29        30        62     9        0.000000       -0.078900         1
        31        29        30        62     9      180.000000       -0.013010         2
        31        29        30        62     9        0.000000        0.523327         3
        31        29        30        62     9      180.000000        0.025674         4
        31        29        30        63     9        0.000000       -0.078900         1
        31        29        30        63     9      180.000000       -0.013010         2
        31        29        30        63     9        0.000000        0.523327         3
        31        29        30        63     9      180.000000        0.025674         4
        31        29        32        67     9        0.000000       -0.006401         1
        31        29        32        67     9      180.000000       -0.007111         2
        31        29        32        67     9        0.000000        0.430489         3
        31        29        32        67     9      180.000000       -0.004178         4
        31        29        32        68     9        0.000000       -0.006401         1
        31        29        32        68     9      180.000000       -0.007111         2
        31        29        32        68     9        0.000000        0.430489         3
        31        29        32        68     9      180.000000       -0.004178         4
        32        29        28        59     9        0.000000       -0.056609         1
        32        29        28        59     9      180.000000        0.045660         2
        32        29        28        59     9        0.000000        0.106452         3
        32        29        28        59     9      180.000000        0.055968         4
        32        29        28        60     9        0.000000       -0.056609         1
        32        29        28        60     9      180.000000        0.045660         2
        32        29        28        60     9        0.000000        0.106452         3
        32        29        28        60     9      180.000000        0.055968         4
        32        29        30        61     9        0.000000       -0.059337         1
        32        29        30        61     9      180.000000       -0.014017         2
        32        29        30        61     9        0.000000        0.458082         3
        32        29        30        61     9      180.000000        0.009486         4
        32        29        30        62     9        0.000000       -0.059337         1
        32        29        30        62     9      180.000000       -0.014017         2
        32        29        30        62     9        0.000000        0.458082         3
        32        29        30        62     9      180.000000        0.009486         4
        32        29        30        63     9        0.000000       -0.059337         1
        32        29        30        63     9      180.000000       -0.014017         2
        32        29        30        63     9        0.000000        0.458082         3
        32        29        30        63     9      180.000000        0.009486         4
        32        29        31        64     9        0.000000       -0.059337         1
        32        29        31        64     9      180.000000       -0.014017         2
        32        29        31        64     9        0.000000        0.458082         3
        32        29        31        64     9      180.000000        0.009486         4
        32        29        31        65     9        0.000000       -0.059337         1
        32        29        31        65     9      180.000000       -0.014017         2
        32        29        31        65     9        0.000000        0.458082         3
        32        29        31        65     9      180.000000        0.009486         4
        32        29        31        66     9        0.000000       -0.059337         1
        32        29        31        66     9      180.000000       -0.014017         2
        32        29        31        66     9        0.000000        0.458082         3
        32        29        31        66     9      180.000000        0.009486         4
        36         4         5        38     9        0.000000        0.035831         1
        36         4         5        38     9      180.000000        0.067130         2
        36         4         5        38     9        0.000000        0.600976         3
        36         4         5        38     9      180.000000       -0.019350         4
        36         4         5        39     9        0.000000        0.035831         1
        36         4         5        39     9      180.000000        0.067130         2
        36         4         5        39     9        0.000000        0.600976         3
        36         4         5        39     9      180.000000       -0.019350         4
        37         4         5        38     9        0.000000        0.035831         1
        37         4         5        38     9      180.000000        0.067130         2
        37         4         5        38     9        0.000000        0.600976         3
        37         4         5        38     9      180.000000       -0.019350         4
        37         4         5        39     9        0.000000        0.035831         1
        37         4         5        39     9      180.000000        0.067130         2
        37         4         5        39     9        0.000000        0.600976         3
        37         4         5        39     9      180.000000       -0.019350         4
        38         5         6        40     9        0.000000       -0.116464         1
        38         5         6        40     9      180.000000       -0.002811         2
        38         5         6        40     9        0.000000        0.642311         3
        38         5         6        40     9      180.000000       -0.047616         4
        38         5         6        41     9        0.000000       -0.116464         1
        38         5         6        41     9      180.000000       -0.002811         2
        38         5         6        41     9        0.000000        0.642311         3
        38         5         6        41     9      180.000000       -0.047616         4
        39         5         6        40     9        0.000000       -0.116464         1
        39         5         6        40     9      180.000000       -0.002811         2
        39         5         6        40     9        0.000000        0.642311         3
        39         5         6        40     9      180.000000       -0.047616         4
        39         5         6        41     9        0.000000       -0.116464         1
        39         5         6        41     9      180.000000       -0.002811         2
        39         5         6        41     9        0.000000        0.642311         3
        39         5         6        41     9      180.000000       -0.047616         4
        40         6         7        42     9        0.000000       -0.057759         1
        40         6         7        42     9      180.000000        0.068678         2
        40         6         7        42     9        0.000000        0.474038         3
        40         6         7        42     9      180.000000        0.016182         4
        40         6         7        69     9        0.000000       -0.057759         1
        40         6         7        69     9      180.000000        0.068678         2
        40         6         7        69     9        0.000000        0.474038         3
        40         6         7        69     9      180.000000        0.016182         4
        41         6         7        42     9        0.000000       -0.057759         1
        41         6         7        42     9      180.000000        0.068678         2
        41         6         7        42     9        0.000000        0.474038         3
        41         6         7        42     9      180.000000        0.016182         4
        41         6         7        69     9        0.000000       -0.057759         1
        41         6         7        69     9      180.000000        0.068678         2
        41         6         7        69     9        0.000000        0.474038         3
        41         6         7        69     9      180.000000        0.016182         4
        42         7         8        43     9        0.000000        0.019024         1
        42         7         8        43     9      180.000000        0.080668         2
        42         7         8        43     9        0.000000        0.498615         3
        42         7         8        43     9      180.000000       -0.000243         4
        42         7         8        44     9        0.000000        0.019024         1
        42         7         8        44     9      180.000000        0.080668         2
        42         7         8        44     9        0.000000        0.498615         3
        42         7         8        44     9      180.000000       -0.000243         4
        43         8         7        69     9        0.000000        0.019024         1
        43         8         7        69     9      180.000000        0.080668         2
        43         8         7        69     9        0.000000        0.498615         3
        43         8         7        69     9      180.000000       -0.000243         4
        44         8         7        69     9        0.000000        0.019024         1
        44         8         7        69     9      180.000000        0.080668         2
        44         8         7        69     9        0.000000        0.498615         3
        44         8         7        69     9      180.000000       -0.000243         4
        51        12        13        53     9        0.000000        0.052303         1
        51        12        13        53     9      180.000000        0.469629         2
        51        12        13        53     9        0.000000       -0.060495         3
        51        12        13        53     9      180.000000       -0.143468         4
        52        12        13        53     9        0.000000        0.052303         1
        52        12        13        53     9      180.000000        0.469629         2
        52        12        13        53     9        0.000000       -0.060495         3
        52        12        13        53     9      180.000000       -0.143468         4
        55        17        18        56     9        0.000000       -0.185158         1
        55        17        18        56     9      180.000000       12.404909         2
        55        17        18        56     9        0.000000       -0.876224         3
        55        17        18        56     9      180.000000        0.264796         4

[ dihedrals ] ; impropers
;       ai        aj        ak        al funct           phase               k        pn
        20        19        21        22     4      180.000000       27.893333         2
        20        21        22        19     4      180.000000       27.893333         2
        20        22        19        21     4      180.000000       27.893333         2
        26        25        27        28     4      180.000000       27.893333         2
        26        27        28        25     4      180.000000       27.893333         2
        26        28        25        27     4      180.000000       27.893333         2

[ pairs ]
;       ai        aj funct
         1         4     1
         1        23     1
         1        24     1
         1        26     1
         2         5     1
         2        16     1
         2        27     1
         2        28     1
         2        32     1
         2        36     1
         2        37     1
         3         6     1
         3        15     1
         3        17     1
         3        26     1
         3        32     1
         3        33     1
         3        34     1
         3        35     1
         3        38     1
         3        39     1
         4         7     1
         4        16     1
         4        24     1
         4        25     1
         4        40     1
         4        41     1
         5         8     1
         5        23     1
         5        42     1
         5        69     1
         6         9     1
         6        36     1
         6        37     1
         6        43     1
         6        44     1
         7        10     1
         7        11     1
         7        12     1
         7        38     1
         7        39     1
         8        13     1
         8        40     1
         8        41     1
         8        45     1
         8        46     1
         8        47     1
         8        48     1
         8        49     1
         8        50     1
         8        51     1
         8        52     1
         9        14     1
         9        42     1
         9        53     1
         9        69     1
        10        13     1
        10        43     1
        10        44     1
        10        48     1
        10        49     1
        10        50     1
        10        51     1
        10        52     1
        11        13     1
        11        43     1
        11        44     1
        11        45     1
        11        46     1
        11        47     1
        11        51     1
        11        52     1
        12        15     1
        12        19     1
        12        43     1
        12        44     1
        12        45     1
        12        46     1
        12        47     1
        12        48     1
        12        49     1
        12        50     1
        13        16     1
        13        18     1
        13        20     1
        13        54     1
        14        17     1
        14        21     1
        14        22     1
        14        23     1
        14        51     1
        14        52     1
        14        56     1
        15        18     1
        15        20     1
        15        24     1
        15        53     1
        15        55     1
        16        19     1
        16        25     1
        16        32     1
        16        56     1
        17        20     1
        17        24     1
        17        54     1
        18        21     1
        18        22     1
        18        23     1
        19        53     1
        19        54     1
        19        55     1
        19        57     1
        19        58     1
        20        56     1
        22        57     1
        22        58     1
        23        26     1
        23        29     1
        23        36     1
        23        37     1
        23        54     1
        23        55     1
        23        67     1
        23        68     1
        24        27     1
        24        28     1
        24        30     1
        24        31     1
        25        29     1
        25        33     1
        25        34     1
        25        35     1
        25        59     1
        25        60     1
        25        67     1
        25        68     1
        26        30     1
        26        31     1
        26        32     1
        27        29     1
        27        59     1
        27        60     1
        28        61     1
        28        62     1
        28        63     1
        28        64     1
        28        65     1
        28        66     1
        28        67     1
        28        68     1
        30        59     1
        30        60     1
        30        64     1
        30        65     1
        30        66     1
        30        67     1
        30        68     1
        31        59     1
        31        60     1
        31        61     1
        31        62     1
        31        63     1
        31        67     1
        31        68     1
        32        59     1
        32        60     1
        32        61     1
        32        62     1
        32        63     1
        32        64     1
        32        65     1
        32        66     1
        36        38     1
        36        39     1
        37        38     1
        37        39     1
        38        40     1
        38        41     1
        39        40     1
        39        41     1
        40        42     1
        40        69     1
        41        42     1
        41        69     1
        42        43     1
        42        44     1
        43        69     1
        44        69     1
        51        53     1
        52        53     1
        55        56     1
