; ITP file created by ByteFF-ML, 2025-12-06 06:48:41.245430

[ atomtypes ]
;name           bonded.type        at.num        mass        charge   ptype           sigma         epsilon
 c0bf                                   6      0.0000       0.00000       A     3.39771e-01     4.50971e-01
 c1bf                                   6      0.0000       0.00000       A     3.31409e-01     4.15870e-01
 c2bf                                   6      0.0000       0.00000       A     3.31491e-01     4.11108e-01
 c3bf                                   6      0.0000       0.00000       A     3.39762e-01     4.51590e-01
 c4bf                                   6      0.0000       0.00000       A     3.39532e-01     4.48309e-01
 c5bf                                   6      0.0000       0.00000       A     3.39714e-01     4.52794e-01
 n6bf                                   7      0.0000       0.00000       A     2.67621e-01     7.05420e+00
 c7bf                                   6      0.0000       0.00000       A     3.39739e-01     4.51367e-01
 c8bf                                   6      0.0000       0.00000       A     3.39484e-01     4.45512e-01
 c9bf                                   6      0.0000       0.00000       A     3.40264e-01     4.60571e-01
 n10bf                                  7      0.0000       0.00000       A     3.27210e-01     6.54286e-01
 c11bf                                  6      0.0000       0.00000       A     3.31755e-01     4.16553e-01
 c12bf                                  6      0.0000       0.00000       A     3.31373e-01     4.13545e-01
 c13bf                                  6      0.0000       0.00000       A     3.31365e-01     4.13714e-01
 c14bf                                  6      0.0000       0.00000       A     3.31501e-01     4.13754e-01
 c15bf                                  6      0.0000       0.00000       A     3.31577e-01     4.13377e-01
 c16bf                                  6      0.0000       0.00000       A     3.31419e-01     4.08822e-01
 c17bf                                  6      0.0000       0.00000       A     3.31424e-01     4.13971e-01
 n18bf                                  7      0.0000       0.00000       A     3.36061e-01     3.56452e-01
 o19bf                                  8      0.0000       0.00000       A     3.04770e-01     6.10718e-01
 n20bf                                  7      0.0000       0.00000       A     3.20811e-01     8.54275e-01
 c21bf                                  6      0.0000       0.00000       A     3.31420e-01     4.09122e-01
 c22bf                                  6      0.0000       0.00000       A     3.31533e-01     4.15377e-01
 c23bf                                  6      0.0000       0.00000       A     3.31417e-01     4.15977e-01
 o24bf                                  8      0.0000       0.00000       A     3.04661e-01     6.12437e-01
 c25bf                                  6      0.0000       0.00000       A     3.39748e-01     4.49386e-01
 c26bf                                  6      0.0000       0.00000       A     3.39855e-01     4.51297e-01
 c27bf                                  6      0.0000       0.00000       A     3.39900e-01     4.50376e-01
 c28bf                                  6      0.0000       0.00000       A     3.39900e-01     4.50376e-01
 c29bf                                  6      0.0000       0.00000       A     3.40137e-01     4.51587e-01
 h30bf                                  1      0.0000       0.00000       A     2.60038e-01     8.66937e-02
 h31bf                                  1      0.0000       0.00000       A     2.60038e-01     8.66937e-02
 h32bf                                  1      0.0000       0.00000       A     2.60038e-01     8.66937e-02
 h33bf                                  1      0.0000       0.00000       A     2.59802e-01     8.78062e-02
 h34bf                                  1      0.0000       0.00000       A     2.59802e-01     8.78062e-02
 h35bf                                  1      0.0000       0.00000       A     2.60240e-01     8.83536e-02
 h36bf                                  1      0.0000       0.00000       A     2.60240e-01     8.83536e-02
 h37bf                                  1      0.0000       0.00000       A     1.88009e-01     8.63601e-02
 h38bf                                  1      0.0000       0.00000       A     1.88009e-01     8.63601e-02
 h39bf                                  1      0.0000       0.00000       A     2.60324e-01     8.77631e-02
 h40bf                                  1      0.0000       0.00000       A     2.60324e-01     8.77631e-02
 c41bf                                  6      0.0000       0.00000       A     3.39739e-01     4.51367e-01
 h42bf                                  1      0.0000       0.00000       A     2.42216e-01     8.72651e-02
 h43bf                                  1      0.0000       0.00000       A     2.42216e-01     8.72651e-02
 h44bf                                  1      0.0000       0.00000       A     1.09844e-01     4.11291e-02
 h45bf                                  1      0.0000       0.00000       A     2.62376e-01     6.77595e-02
 h46bf                                  1      0.0000       0.00000       A     2.62584e-01     6.76590e-02
 h47bf                                  1      0.0000       0.00000       A     2.62545e-01     6.73078e-02
 h48bf                                  1      0.0000       0.00000       A     1.10424e-01     4.11499e-02
 h49bf                                  1      0.0000       0.00000       A     1.10424e-01     4.11499e-02
 h50bf                                  1      0.0000       0.00000       A     2.59861e-01     8.80488e-02
 h51bf                                  1      0.0000       0.00000       A     2.59861e-01     8.80488e-02
 h52bf                                  1      0.0000       0.00000       A     2.59826e-01     8.77551e-02
 h53bf                                  1      0.0000       0.00000       A     2.59826e-01     8.77551e-02
 h54bf                                  1      0.0000       0.00000       A     2.59826e-01     8.77551e-02
 h55bf                                  1      0.0000       0.00000       A     2.59826e-01     8.77551e-02
 h56bf                                  1      0.0000       0.00000       A     2.59826e-01     8.77551e-02
 h57bf                                  1      0.0000       0.00000       A     2.59826e-01     8.77551e-02
 h58bf                                  1      0.0000       0.00000       A     2.60109e-01     8.76673e-02
 h59bf                                  1      0.0000       0.00000       A     2.60109e-01     8.76673e-02
 h60bf                                  1      0.0000       0.00000       A     1.10812e-01     4.15106e-02
 h61bf                                  1      0.0000       0.00000       A     1.10812e-01     4.15106e-02
 h62bf                                  1      0.0000       0.00000       A     2.60324e-01     8.77631e-02
 h63bf                                  1      0.0000       0.00000       A     2.60324e-01     8.77631e-02
 h64bf                                  1      0.0000       0.00000       A     2.60324e-01     8.77631e-02
 h65bf                                  1      0.0000       0.00000       A     2.60324e-01     8.77631e-02

[ moleculetype ]
;name             nrexcl
 lignad_63             3

[ atoms ]
;       nr            type      resi   res      atom      cgnr      charge          mass ; qtot
         1            c0bf         1   UNL        c0         1    -0.02568       12.0110 ; qtot   -0.026
         2            c1bf         1   UNL        c1         2    -0.05236       12.0110 ; qtot   -0.078
         3            c2bf         1   UNL        c2         3    -0.18093       12.0110 ; qtot   -0.259
         4            c3bf         1   UNL        c3         4    -0.00719       12.0110 ; qtot   -0.266
         5            c4bf         1   UNL        c4         5    -0.10539       12.0110 ; qtot   -0.372
         6            c5bf         1   UNL        c5         6     0.11616       12.0110 ; qtot   -0.255
         7            n6bf         1   UNL        n6         7    -0.84553       14.0070 ; qtot   -1.101
         8            c7bf         1   UNL        c7         8    -0.12361       12.0110 ; qtot   -1.225
         9            c8bf         1   UNL        c8         9     0.13581       12.0110 ; qtot   -1.089
        10            c9bf         1   UNL        c9        10     0.18145       12.0110 ; qtot   -0.907
        11           n10bf         1   UNL       n10        11    -0.93847       14.0070 ; qtot   -1.846
        12           c11bf         1   UNL       c11        12     0.35624       12.0110 ; qtot   -1.490
        13           c12bf         1   UNL       c12        13    -0.18818       12.0110 ; qtot   -1.678
        14           c13bf         1   UNL       c13        14     0.04292       12.0110 ; qtot   -1.635
        15           c14bf         1   UNL       c14        15    -0.15163       12.0110 ; qtot   -1.786
        16           c15bf         1   UNL       c15        16    -0.01891       12.0110 ; qtot   -1.805
        17           c16bf         1   UNL       c16        17    -0.24689       12.0110 ; qtot   -2.052
        18           c17bf         1   UNL       c17        18     0.61162       12.0110 ; qtot   -1.441
        19           n18bf         1   UNL       n18        19    -0.58141       14.0070 ; qtot   -2.022
        20           o19bf         1   UNL       o19        20    -0.62993       15.9990 ; qtot   -2.652
        21           n20bf         1   UNL       n20        21     0.11173       14.0070 ; qtot   -2.540
        22           c21bf         1   UNL       c21        22    -0.08440       12.0110 ; qtot   -2.625
        23           c22bf         1   UNL       c22        23    -0.24749       12.0110 ; qtot   -2.872
        24           c23bf         1   UNL       c23        24     0.61620       12.0110 ; qtot   -2.256
        25           o24bf         1   UNL       o24        25    -0.55107       15.9990 ; qtot   -2.807
        26           c25bf         1   UNL       c25        26    -0.17159       12.0110 ; qtot   -2.979
        27           c26bf         1   UNL       c26        27    -0.03674       12.0110 ; qtot   -3.015
        28           c27bf         1   UNL       c27        28    -0.08858       12.0110 ; qtot   -3.104
        29           c28bf         1   UNL       c28        29    -0.08858       12.0110 ; qtot   -3.192
        30           c29bf         1   UNL       c29        30    -0.02157       12.0110 ; qtot   -3.214
        31           h30bf         1   UNL       h30        31     0.04830        1.0080 ; qtot   -3.166
        32           h31bf         1   UNL       h31        32     0.04830        1.0080 ; qtot   -3.117
        33           h32bf         1   UNL       h32        33     0.04830        1.0080 ; qtot   -3.069
        34           h33bf         1   UNL       h33        34     0.07020        1.0080 ; qtot   -2.999
        35           h34bf         1   UNL       h34        35     0.07020        1.0080 ; qtot   -2.929
        36           h35bf         1   UNL       h35        36     0.08519        1.0080 ; qtot   -2.844
        37           h36bf         1   UNL       h36        37     0.08519        1.0080 ; qtot   -2.758
        38           h37bf         1   UNL       h37        38     0.10460        1.0080 ; qtot   -2.654
        39           h38bf         1   UNL       h38        39     0.10460        1.0080 ; qtot   -2.549
        40           h39bf         1   UNL       h39        40     0.07705        1.0080 ; qtot   -2.472
        41           h40bf         1   UNL       h40        41     0.07705        1.0080 ; qtot   -2.395
        42           c41bf         1   UNL       c41        42    -0.12361       12.0110 ; qtot   -2.519
        43           h42bf         1   UNL       h42        43     0.08029        1.0080 ; qtot   -2.438
        44           h43bf         1   UNL       h43        44     0.08029        1.0080 ; qtot   -2.358
        45           h44bf         1   UNL       h44        45     0.50483        1.0080 ; qtot   -1.853
        46           h45bf         1   UNL       h45        46     0.13345        1.0080 ; qtot   -1.720
        47           h46bf         1   UNL       h46        47     0.13843        1.0080 ; qtot   -1.581
        48           h47bf         1   UNL       h47        48     0.12891        1.0080 ; qtot   -1.452
        49           h48bf         1   UNL       h48        49     0.31037        1.0080 ; qtot   -1.142
        50           h49bf         1   UNL       h49        50     0.31037        1.0080 ; qtot   -0.832
        51           h50bf         1   UNL       h50        51     0.06951        1.0080 ; qtot   -0.762
        52           h51bf         1   UNL       h51        52     0.06951        1.0080 ; qtot   -0.693
        53           h52bf         1   UNL       h52        53     0.03812        1.0080 ; qtot   -0.655
        54           h53bf         1   UNL       h53        54     0.03812        1.0080 ; qtot   -0.616
        55           h54bf         1   UNL       h54        55     0.03812        1.0080 ; qtot   -0.578
        56           h55bf         1   UNL       h55        56     0.03812        1.0080 ; qtot   -0.540
        57           h56bf         1   UNL       h56        57     0.03812        1.0080 ; qtot   -0.502
        58           h57bf         1   UNL       h57        58     0.03812        1.0080 ; qtot   -0.464
        59           h58bf         1   UNL       h58        59     0.06348        1.0080 ; qtot   -0.400
        60           h59bf         1   UNL       h59        60     0.06348        1.0080 ; qtot   -0.337
        61           h60bf         1   UNL       h60        61     0.51440        1.0080 ; qtot    0.177
        62           h61bf         1   UNL       h61        62     0.51440        1.0080 ; qtot    0.692
        63           h62bf         1   UNL       h62        63     0.07705        1.0080 ; qtot    0.769
        64           h63bf         1   UNL       h63        64     0.07705        1.0080 ; qtot    0.846
        65           h64bf         1   UNL       h64        65     0.07705        1.0080 ; qtot    0.923
        66           h65bf         1   UNL       h65        66     0.07704        1.0080 ; qtot    1.000

[ bonds ]
;       ai        aj funct               r               k
         1         2     1        0.150135   218778.714355
         1        31     1        0.109341   302170.757910
         1        32     1        0.109341   302170.757910
         1        33     1        0.109341   302170.757910
         2         3     1        0.138135   351590.171973
         2        23     1        0.144356   232126.042090
         3         4     1        0.149848   213595.408960
         3        21     1        0.140873   219193.079492
         4         5     1        0.154637   169416.120361
         4        34     1        0.109421   296905.414551
         4        35     1        0.109421   296905.414551
         5         6     1        0.152779   188741.327881
         5        36     1        0.109422   300828.629590
         5        37     1        0.109422   300828.629590
         6         7     1        0.151496   141042.514868
         6        38     1        0.109061   311748.527393
         6        39     1        0.109061   311748.527393
         7         9     1        0.154165    95827.715637
         7        61     1        0.103107   367603.420703
         7        62     1        0.103107   367603.420703
         8         9     1        0.153017   181692.281274
         8        40     1        0.109213   307446.239502
         8        41     1        0.109213   307446.239502
         8        63     1        0.109213   307446.239502
         9        10     1        0.154920   158423.786548
         9        42     1        0.153017   181692.281274
        10        11     1        0.145770   205707.417236
        10        43     1        0.109494   295867.995020
        10        44     1        0.109494   295867.995020
        11        12     1        0.140275   264651.228223
        11        45     1        0.101779   397436.203857
        12        13     1        0.140839   282571.767041
        12        17     1        0.142691   246446.589062
        13        14     1        0.139059   315198.744092
        13        46     1        0.108219   326426.593896
        14        15     1        0.139949   295338.636279
        14        21     1        0.142696   237147.429443
        15        16     1        0.139142   327036.803125
        15        47     1        0.108435   325045.112891
        16        17     1        0.140316   298630.088770
        16        48     1        0.108521   321518.003955
        17        18     1        0.148703   181870.568604
        18        19     1        0.138047   289820.833057
        18        20     1        0.124068   560318.246191
        19        49     1        0.101260   423336.706299
        19        50     1        0.101260   423336.706299
        21        22     1        0.137218   282400.259814
        22        23     1        0.139123   320398.303857
        22        30     1        0.149373   218328.750488
        23        24     1        0.145880   216355.727881
        24        25     1        0.123266   614080.756445
        24        26     1        0.153111   159545.414697
        26        27     1        0.154383   164738.717871
        26        51     1        0.109557   295667.707471
        26        52     1        0.109557   295667.707471
        27        28     1        0.153851   176623.471509
        27        29     1        0.153851   176623.471509
        27        30     1        0.154994   159007.360571
        28        53     1        0.109464   297956.215527
        28        54     1        0.109464   297956.215527
        28        55     1        0.109464   297956.215527
        29        56     1        0.109464   297956.215527
        29        57     1        0.109464   297956.215527
        29        58     1        0.109464   297956.215527
        30        59     1        0.109675   290693.665918
        30        60     1        0.109675   290693.665918
        42        64     1        0.109213   307446.213965
        42        65     1        0.109213   307446.213965
        42        66     1        0.109213   307446.213965

[ angles ]
;       ai        aj        ak funct           theta             cth
         1         2         3     1      127.512558      403.859585
         1         2        23     1      125.646835      512.309719
         2         1        31     1      111.034035      482.134751
         2         1        32     1      111.034035      482.134751
         2         1        33     1      111.034035      482.134751
         2         3         4     1      129.995514      404.356186
         2         3        21     1      108.079056      176.582440
         2        23        22     1      108.234268      388.611536
         2        23        24     1      130.480499      516.615659
         3         2        23     1      106.715492      317.970146
         3         4         5     1      112.894226      537.994752
         3         4        34     1      109.783371      500.229485
         3         4        35     1      109.783371      500.229421
         3        21        14     1      125.682678      428.159038
         3        21        22     1      109.378174      244.944116
         4         3        21     1      121.806541      531.884360
         4         5         6     1      112.816238      580.523488
         4         5        36     1      109.563705      476.367770
         4         5        37     1      109.563705      476.367770
         5         4        34     1      109.169777      484.940578
         5         4        35     1      109.169777      484.940578
         5         6         7     1      111.721924      720.504898
         5         6        38     1      111.743736      489.408167
         5         6        39     1      111.743736      489.408167
         6         5        36     1      109.375511      515.856057
         6         5        37     1      109.375511      515.856057
         6         7         9     1      119.382912      557.255351
         6         7        61     1      108.719383      494.624090
         6         7        62     1      108.719383      494.624090
         7         6        38     1      106.573486      557.723701
         7         6        39     1      106.573486      557.723701
         7         9         8     1      108.219986      726.069562
         7         9        10     1      106.117599      624.589813
         7         9        42     1      108.219986      726.069562
         8         9        10     1      111.664383      600.086574
         8         9        42     1      111.643021      604.868781
         9         7        61     1      106.749390      469.735400
         9         7        62     1      106.749390      469.735400
         9         8        40     1      110.921471      488.890083
         9         8        41     1      110.921471      488.890019
         9         8        63     1      110.921471      488.890019
         9        10        11     1      112.126999      502.408056
         9        10        43     1      108.949173      468.423558
         9        10        44     1      108.949173      468.423558
         9        42        64     1      110.921471      488.890019
         9        42        65     1      110.921471      488.890019
         9        42        66     1      110.921471      488.890019
        10         9        42     1      111.664383      600.086574
        10        11        12     1      120.407997      503.126958
        10        11        45     1      113.749756      441.270844
        11        10        43     1      110.146118      464.502590
        11        10        44     1      110.146118      464.502559
        11        12        13     1      120.503464      552.856967
        11        12        17     1      120.922012      621.318893
        12        11        45     1      111.328568      497.957736
        12        13        14     1      120.928978      757.091084
        12        13        46     1      120.210037      421.163434
        12        17        16     1      118.552780      775.019731
        12        17        18     1      120.950928      736.569910
        13        12        17     1      118.650833      637.270584
        13        14        15     1      120.522682      623.041626
        13        14        21     1      119.486984      445.550448
        14        13        46     1      118.918152      419.914925
        14        15        16     1      118.805260      690.031593
        14        15        47     1      119.810989      440.505081
        14        21        22     1      125.077408      437.235342
        15        14        21     1      119.964706      505.331449
        15        16        17     1      122.097046      593.341457
        15        16        48     1      119.056595      418.362875
        16        15        47     1      120.906395      428.342522
        16        17        18     1      120.184692      563.576998
        17        16        48     1      118.687027      397.820474
        17        18        19     1      117.173302      544.000314
        17        18        20     1      123.203079      531.330780
        18        19        49     1      116.978172      454.410484
        18        19        50     1      116.978172      454.410484
        19        18        20     1      119.649353      682.291933
        21        22        23     1      107.981873      167.360000
        21        22        30     1      126.440628      538.406985
        22        23        24     1      121.426041      472.586075
        22        30        27     1      110.601151      620.670186
        22        30        59     1      110.436203      489.152030
        22        30        60     1      110.436203      489.152030
        23        22        30     1      125.733871      448.589907
        23        24        25     1      124.124985      547.724902
        23        24        26     1      114.799881      537.299377
        24        26        27     1      115.199318      704.315839
        24        26        51     1      107.090210      544.247386
        24        26        52     1      107.090210      544.247386
        25        24        26     1      120.796188      618.014710
        26        27        28     1      109.760399      618.351161
        26        27        29     1      109.760399      618.351161
        26        27        30     1      109.166458      568.282019
        27        26        51     1      110.158142      467.958336
        27        26        52     1      110.158142      467.958336
        27        28        53     1      111.054298      493.579016
        27        28        54     1      111.054298      493.579016
        27        28        55     1      111.054298      493.579016
        27        29        56     1      111.054298      493.579016
        27        29        57     1      111.054298      493.579016
        27        29        58     1      111.054298      493.579016
        27        30        59     1      109.639915      462.474912
        27        30        60     1      109.639915      462.474912
        28        27        29     1      109.435570      632.975051
        28        27        30     1      109.473282      583.164281
        29        27        30     1      109.473282      583.164281
        31         1        32     1      107.859253      356.842606
        31         1        33     1      107.859253      356.842606
        32         1        33     1      107.859253      356.842606
        34         4        35     1      106.219162      363.978792
        36         5        37     1      106.826920      361.461503
        38         6        39     1      108.453781      350.178538
        40         8        41     1      108.099449      359.102992
        40         8        63     1      108.099449      359.102992
        41         8        63     1      108.099449      359.102992
        43        10        44     1      106.716698      357.108320
        49        19        50     1      117.099060      317.421354
        51        26        52     1      106.722084      359.234157
        53        28        54     1      107.812393      362.058593
        53        28        55     1      107.812393      362.058593
        54        28        55     1      107.812393      362.058593
        56        29        57     1      107.812393      362.058593
        56        29        58     1      107.812393      362.058593
        57        29        58     1      107.812393      362.058593
        59        30        60     1      106.299911      363.671421
        61         7        62     1      106.795448      393.616299
        64        42        65     1      108.099449      359.102992
        64        42        66     1      108.099449      359.102992
        65        42        66     1      108.099449      359.102992

[ dihedrals ] ; propers for gromacs 4.5 or higher, use funct 9
;       ai        aj        ak        al funct           phase               k        pn
         1         2         3         4     9        0.000000        0.054200         1
         1         2         3         4     9      180.000000       11.619327         2
         1         2         3         4     9        0.000000        0.458390         3
         1         2         3         4     9      180.000000       -0.129352         4
         1         2         3        21     9        0.000000        0.597599         1
         1         2         3        21     9      180.000000       19.445525         2
         1         2         3        21     9        0.000000        0.524847         3
         1         2         3        21     9      180.000000       -1.435111         4
         1         2        23        22     9        0.000000        0.891587         1
         1         2        23        22     9      180.000000       14.127658         2
         1         2        23        22     9        0.000000        0.555536         3
         1         2        23        22     9      180.000000       -0.696030         4
         1         2        23        24     9        0.000000        0.062412         1
         1         2        23        24     9      180.000000        6.839571         2
         1         2        23        24     9        0.000000        0.500795         3
         1         2        23        24     9      180.000000       -0.233578         4
         2         3         4         5     9        0.000000       -0.302401         1
         2         3         4         5     9      180.000000       -0.076003         2
         2         3         4         5     9        0.000000       -0.141042         3
         2         3         4         5     9      180.000000        0.012507         4
         2         3         4        34     9        0.000000        0.172156         1
         2         3         4        34     9      180.000000        0.018828         2
         2         3         4        34     9        0.000000       -0.136196         3
         2         3         4        34     9      180.000000        0.009208         4
         2         3         4        35     9        0.000000        0.172156         1
         2         3         4        35     9      180.000000        0.018828         2
         2         3         4        35     9        0.000000       -0.136196         3
         2         3         4        35     9      180.000000        0.009208         4
         2         3        21        14     9        0.000000        0.886620         1
         2         3        21        14     9      180.000000        3.899442         2
         2         3        21        14     9        0.000000        0.809074         3
         2         3        21        14     9      180.000000        0.097690         4
         2         3        21        22     9        0.000000        0.129226         1
         2         3        21        22     9      180.000000       23.002444         2
         2         3        21        22     9        0.000000       -6.927652         3
         2         3        21        22     9      180.000000       -0.282099         4
         2        23        22        21     9        0.000000       -0.095283         1
         2        23        22        21     9      180.000000       25.846793         2
         2        23        22        21     9        0.000000       -7.901115         3
         2        23        22        21     9      180.000000       -0.317704         4
         2        23        22        30     9        0.000000        0.451103         1
         2        23        22        30     9      180.000000       15.819419         2
         2        23        22        30     9        0.000000       -1.735378         3
         2        23        22        30     9      180.000000       -0.503683         4
         2        23        24        25     9        0.000000       -1.646476         1
         2        23        24        25     9      180.000000        8.040231         2
         2        23        24        25     9        0.000000       -0.168030         3
         2        23        24        25     9      180.000000       -0.215481         4
         2        23        24        26     9        0.000000       -0.588539         1
         2        23        24        26     9      180.000000        5.416350         2
         2        23        24        26     9        0.000000        0.007341         3
         2        23        24        26     9      180.000000        0.038506         4
         3         2         1        31     9        0.000000       -0.051816         1
         3         2         1        31     9      180.000000        0.029539         2
         3         2         1        31     9        0.000000       -0.137558         3
         3         2         1        31     9      180.000000        0.026375         4
         3         2         1        32     9        0.000000       -0.051816         1
         3         2         1        32     9      180.000000        0.029539         2
         3         2         1        32     9        0.000000       -0.137558         3
         3         2         1        32     9      180.000000        0.026375         4
         3         2         1        33     9        0.000000       -0.051816         1
         3         2         1        33     9      180.000000        0.029539         2
         3         2         1        33     9        0.000000       -0.137558         3
         3         2         1        33     9      180.000000        0.026375         4
         3         2        23        22     9        0.000000        0.140952         1
         3         2        23        22     9      180.000000       26.126382         2
         3         2        23        22     9        0.000000       -8.506358         3
         3         2        23        22     9      180.000000       -0.113619         4
         3         2        23        24     9        0.000000       -0.138936         1
         3         2        23        24     9      180.000000        4.452583         2
         3         2        23        24     9        0.000000       -0.454337         3
         3         2        23        24     9      180.000000        0.195315         4
         3         4         5         6     9        0.000000        1.414365         1
         3         4         5         6     9      180.000000       -0.324582         2
         3         4         5         6     9        0.000000        0.587756         3
         3         4         5         6     9      180.000000        0.037863         4
         3         4         5        36     9        0.000000        0.091039         1
         3         4         5        36     9      180.000000        0.022552         2
         3         4         5        36     9        0.000000        0.591612         3
         3         4         5        36     9      180.000000        0.020440         4
         3         4         5        37     9        0.000000        0.091039         1
         3         4         5        37     9      180.000000        0.022552         2
         3         4         5        37     9        0.000000        0.591612         3
         3         4         5        37     9      180.000000        0.020440         4
         3        21        14        13     9        0.000000       -0.348876         1
         3        21        14        13     9      180.000000        4.588828         2
         3        21        14        13     9        0.000000       -0.037155         3
         3        21        14        13     9      180.000000        0.413749         4
         3        21        14        15     9        0.000000        0.060005         1
         3        21        14        15     9      180.000000        4.729350         2
         3        21        14        15     9        0.000000        0.163550         3
         3        21        14        15     9      180.000000        0.435099         4
         3        21        22        23     9        0.000000        0.092992         1
         3        21        22        23     9      180.000000       28.324824         2
         3        21        22        23     9        0.000000       -7.168871         3
         3        21        22        23     9      180.000000       -0.533887         4
         3        21        22        30     9        0.000000        1.012935         1
         3        21        22        30     9      180.000000        9.522836         2
         3        21        22        30     9        0.000000        0.806163         3
         3        21        22        30     9      180.000000       -0.291266         4
         4         3         2        23     9        0.000000        0.603203         1
         4         3         2        23     9      180.000000       17.402337         2
         4         3         2        23     9        0.000000        0.283012         3
         4         3         2        23     9      180.000000       -1.049851         4
         4         3        21        14     9        0.000000       -0.123013         1
         4         3        21        14     9      180.000000        3.190655         2
         4         3        21        14     9        0.000000        0.504915         3
         4         3        21        14     9      180.000000       -0.020778         4
         4         3        21        22     9        0.000000        0.818872         1
         4         3        21        22     9      180.000000        7.076244         2
         4         3        21        22     9        0.000000        0.586903         3
         4         3        21        22     9      180.000000       -0.030703         4
         4         5         6         7     9        0.000000        2.019761         1
         4         5         6         7     9      180.000000       -0.283543         2
         4         5         6         7     9        0.000000        0.645261         3
         4         5         6         7     9      180.000000       -0.054886         4
         4         5         6        38     9        0.000000       -0.170740         1
         4         5         6        38     9      180.000000        0.057559         2
         4         5         6        38     9        0.000000        0.730857         3
         4         5         6        38     9      180.000000        0.051277         4
         4         5         6        39     9        0.000000       -0.170740         1
         4         5         6        39     9      180.000000        0.057559         2
         4         5         6        39     9        0.000000        0.730857         3
         4         5         6        39     9      180.000000        0.051277         4
         5         4         3        21     9        0.000000        1.040006         1
         5         4         3        21     9      180.000000       -0.407178         2
         5         4         3        21     9        0.000000        0.539094         3
         5         4         3        21     9      180.000000       -0.027664         4
         5         6         7         9     9        0.000000        0.731423         1
         5         6         7         9     9      180.000000        0.230552         2
         5         6         7         9     9        0.000000        0.633933         3
         5         6         7         9     9      180.000000       -0.004953         4
         5         6         7        61     9        0.000000       -0.490525         1
         5         6         7        61     9      180.000000       -0.079732         2
         5         6         7        61     9        0.000000        0.454340         3
         5         6         7        61     9      180.000000        0.000398         4
         5         6         7        62     9        0.000000       -0.490525         1
         5         6         7        62     9      180.000000       -0.079732         2
         5         6         7        62     9        0.000000        0.454340         3
         5         6         7        62     9      180.000000        0.000398         4
         6         5         4        34     9        0.000000       -0.412392         1
         6         5         4        34     9      180.000000        0.043801         2
         6         5         4        34     9        0.000000        0.529571         3
         6         5         4        34     9      180.000000        0.044235         4
         6         5         4        35     9        0.000000       -0.412392         1
         6         5         4        35     9      180.000000        0.043801         2
         6         5         4        35     9        0.000000        0.529571         3
         6         5         4        35     9      180.000000        0.044235         4
         6         7         9         8     9        0.000000        0.642043         1
         6         7         9         8     9      180.000000        0.261013         2
         6         7         9         8     9        0.000000        0.874560         3
         6         7         9         8     9      180.000000        0.041594         4
         6         7         9        10     9        0.000000       -0.210869         1
         6         7         9        10     9      180.000000       -0.449109         2
         6         7         9        10     9        0.000000        0.727826         3
         6         7         9        10     9      180.000000        0.123787         4
         6         7         9        42     9        0.000000        0.642043         1
         6         7         9        42     9      180.000000        0.261013         2
         6         7         9        42     9        0.000000        0.874560         3
         6         7         9        42     9      180.000000        0.041594         4
         7         6         5        36     9        0.000000       -0.094576         1
         7         6         5        36     9      180.000000        0.061418         2
         7         6         5        36     9        0.000000        0.601078         3
         7         6         5        36     9      180.000000        0.018629         4
         7         6         5        37     9        0.000000       -0.094576         1
         7         6         5        37     9      180.000000        0.061418         2
         7         6         5        37     9        0.000000        0.601078         3
         7         6         5        37     9      180.000000        0.018629         4
         7         9         8        40     9        0.000000       -0.145941         1
         7         9         8        40     9      180.000000       -0.111891         2
         7         9         8        40     9        0.000000        0.536576         3
         7         9         8        40     9      180.000000        0.055224         4
         7         9         8        41     9        0.000000       -0.145941         1
         7         9         8        41     9      180.000000       -0.111891         2
         7         9         8        41     9        0.000000        0.536576         3
         7         9         8        41     9      180.000000        0.055224         4
         7         9         8        63     9        0.000000       -0.145941         1
         7         9         8        63     9      180.000000       -0.111891         2
         7         9         8        63     9        0.000000        0.536576         3
         7         9         8        63     9      180.000000        0.055224         4
         7         9        10        11     9        0.000000       16.665698         1
         7         9        10        11     9      180.000000       -3.713597         2
         7         9        10        11     9        0.000000       -0.414435         3
         7         9        10        11     9      180.000000        0.057814         4
         7         9        10        43     9        0.000000       -0.309273         1
         7         9        10        43     9      180.000000       -0.048625         2
         7         9        10        43     9        0.000000        0.672468         3
         7         9        10        43     9      180.000000       -0.030689         4
         7         9        10        44     9        0.000000       -0.309273         1
         7         9        10        44     9      180.000000       -0.048625         2
         7         9        10        44     9        0.000000        0.672468         3
         7         9        10        44     9      180.000000       -0.030689         4
         7         9        42        64     9        0.000000       -0.145941         1
         7         9        42        64     9      180.000000       -0.111891         2
         7         9        42        64     9        0.000000        0.536576         3
         7         9        42        64     9      180.000000        0.055224         4
         7         9        42        65     9        0.000000       -0.145941         1
         7         9        42        65     9      180.000000       -0.111891         2
         7         9        42        65     9        0.000000        0.536576         3
         7         9        42        65     9      180.000000        0.055224         4
         7         9        42        66     9        0.000000       -0.145941         1
         7         9        42        66     9      180.000000       -0.111891         2
         7         9        42        66     9        0.000000        0.536576         3
         7         9        42        66     9      180.000000        0.055224         4
         8         9         7        61     9        0.000000       -0.362413         1
         8         9         7        61     9      180.000000        0.367870         2
         8         9         7        61     9        0.000000        0.432294         3
         8         9         7        61     9      180.000000        0.035287         4
         8         9         7        62     9        0.000000       -0.362413         1
         8         9         7        62     9      180.000000        0.367870         2
         8         9         7        62     9        0.000000        0.432294         3
         8         9         7        62     9      180.000000        0.035287         4
         8         9        10        11     9        0.000000       -0.629276         1
         8         9        10        11     9      180.000000        0.835893         2
         8         9        10        11     9        0.000000        0.778671         3
         8         9        10        11     9      180.000000        0.004813         4
         8         9        10        43     9        0.000000       -0.118583         1
         8         9        10        43     9      180.000000       -0.029483         2
         8         9        10        43     9        0.000000        0.762986         3
         8         9        10        43     9      180.000000        0.073001         4
         8         9        10        44     9        0.000000       -0.118583         1
         8         9        10        44     9      180.000000       -0.029483         2
         8         9        10        44     9        0.000000        0.762986         3
         8         9        10        44     9      180.000000        0.073001         4
         8         9        42        64     9        0.000000       -0.101749         1
         8         9        42        64     9      180.000000       -0.026580         2
         8         9        42        64     9        0.000000        0.587076         3
         8         9        42        64     9      180.000000        0.032748         4
         8         9        42        65     9        0.000000       -0.101749         1
         8         9        42        65     9      180.000000       -0.026580         2
         8         9        42        65     9        0.000000        0.587076         3
         8         9        42        65     9      180.000000        0.032748         4
         8         9        42        66     9        0.000000       -0.101749         1
         8         9        42        66     9      180.000000       -0.026580         2
         8         9        42        66     9        0.000000        0.587076         3
         8         9        42        66     9      180.000000        0.032748         4
         9         7         6        38     9        0.000000       -0.286325         1
         9         7         6        38     9      180.000000        0.068375         2
         9         7         6        38     9        0.000000        0.651345         3
         9         7         6        38     9      180.000000       -0.021506         4
         9         7         6        39     9        0.000000       -0.286325         1
         9         7         6        39     9      180.000000        0.068375         2
         9         7         6        39     9        0.000000        0.651345         3
         9         7         6        39     9      180.000000       -0.021506         4
         9        10        11        12     9        0.000000        1.065394         1
         9        10        11        12     9      180.000000       -1.556193         2
         9        10        11        12     9        0.000000        0.600366         3
         9        10        11        12     9      180.000000       -0.109632         4
         9        10        11        45     9        0.000000       -1.114225         1
         9        10        11        45     9      180.000000       -4.043301         2
         9        10        11        45     9        0.000000       -0.122410         3
         9        10        11        45     9      180.000000       -0.118157         4
        10         9         7        61     9        0.000000        0.376859         1
        10         9         7        61     9      180.000000       -0.057573         2
        10         9         7        61     9        0.000000        0.540081         3
        10         9         7        61     9      180.000000       -0.103281         4
        10         9         7        62     9        0.000000        0.376859         1
        10         9         7        62     9      180.000000       -0.057573         2
        10         9         7        62     9        0.000000        0.540081         3
        10         9         7        62     9      180.000000       -0.103281         4
        10         9         8        40     9        0.000000       -0.142933         1
        10         9         8        40     9      180.000000        0.038703         2
        10         9         8        40     9        0.000000        0.410109         3
        10         9         8        40     9      180.000000        0.037821         4
        10         9         8        41     9        0.000000       -0.142933         1
        10         9         8        41     9      180.000000        0.038703         2
        10         9         8        41     9        0.000000        0.410109         3
        10         9         8        41     9      180.000000        0.037821         4
        10         9         8        63     9        0.000000       -0.142933         1
        10         9         8        63     9      180.000000        0.038703         2
        10         9         8        63     9        0.000000        0.410109         3
        10         9         8        63     9      180.000000        0.037821         4
        10         9        42        64     9        0.000000       -0.142933         1
        10         9        42        64     9      180.000000        0.038703         2
        10         9        42        64     9        0.000000        0.410109         3
        10         9        42        64     9      180.000000        0.037821         4
        10         9        42        65     9        0.000000       -0.142933         1
        10         9        42        65     9      180.000000        0.038703         2
        10         9        42        65     9        0.000000        0.410109         3
        10         9        42        65     9      180.000000        0.037821         4
        10         9        42        66     9        0.000000       -0.142933         1
        10         9        42        66     9      180.000000        0.038703         2
        10         9        42        66     9        0.000000        0.410109         3
        10         9        42        66     9      180.000000        0.037821         4
        10        11        12        13     9        0.000000       -0.042393         1
        10        11        12        13     9      180.000000        5.477959         2
        10        11        12        13     9        0.000000       -0.532079         3
        10        11        12        13     9      180.000000        0.133821         4
        10        11        12        17     9        0.000000        0.073635         1
        10        11        12        17     9      180.000000        6.365316         2
        10        11        12        17     9        0.000000        0.419073         3
        10        11        12        17     9      180.000000       -0.150449         4
        11        10         9        42     9        0.000000       -0.629276         1
        11        10         9        42     9      180.000000        0.835893         2
        11        10         9        42     9        0.000000        0.778671         3
        11        10         9        42     9      180.000000        0.004813         4
        11        12        13        14     9        0.000000        0.325786         1
        11        12        13        14     9      180.000000       17.171035         2
        11        12        13        14     9        0.000000        0.187860         3
        11        12        13        14     9      180.000000       -0.596419         4
        11        12        13        46     9        0.000000       -0.252931         1
        11        12        13        46     9      180.000000       14.928362         2
        11        12        13        46     9        0.000000       -0.137221         3
        11        12        13        46     9      180.000000        0.182877         4
        11        12        17        16     9        0.000000       -0.175899         1
        11        12        17        16     9      180.000000       14.527497         2
        11        12        17        16     9        0.000000        0.056536         3
        11        12        17        16     9      180.000000       -0.300676         4
        11        12        17        18     9        0.000000       -0.604952         1
        11        12        17        18     9      180.000000       13.184706         2
        11        12        17        18     9        0.000000       -0.023598         3
        11        12        17        18     9      180.000000       -0.638884         4
        12        11        10        43     9        0.000000       -0.621626         1
        12        11        10        43     9      180.000000        0.471930         2
        12        11        10        43     9        0.000000        0.640833         3
        12        11        10        43     9      180.000000        0.032181         4
        12        11        10        44     9        0.000000       -0.621626         1
        12        11        10        44     9      180.000000        0.471930         2
        12        11        10        44     9        0.000000        0.640833         3
        12        11        10        44     9      180.000000        0.032181         4
        12        13        14        15     9        0.000000       -0.264894         1
        12        13        14        15     9      180.000000       17.336150         2
        12        13        14        15     9        0.000000       -1.207377         3
        12        13        14        15     9      180.000000       -0.379109         4
        12        13        14        21     9        0.000000        0.579908         1
        12        13        14        21     9      180.000000       19.381242         2
        12        13        14        21     9        0.000000        0.775949         3
        12        13        14        21     9      180.000000       -0.823828         4
        12        17        16        15     9        0.000000        0.041570         1
        12        17        16        15     9      180.000000       18.201930         2
        12        17        16        15     9        0.000000       -1.519391         3
        12        17        16        15     9      180.000000       -0.390764         4
        12        17        16        48     9        0.000000       -0.018229         1
        12        17        16        48     9      180.000000       13.977332         2
        12        17        16        48     9        0.000000       -0.557457         3
        12        17        16        48     9      180.000000       -0.019991         4
        12        17        18        19     9        0.000000        1.015784         1
        12        17        18        19     9      180.000000        4.979868         2
        12        17        18        19     9        0.000000        0.936961         3
        12        17        18        19     9      180.000000       -0.391248         4
        12        17        18        20     9        0.000000       -1.533340         1
        12        17        18        20     9      180.000000        3.121423         2
        12        17        18        20     9        0.000000        0.105325         3
        12        17        18        20     9      180.000000        0.200571         4
        13        12        11        45     9        0.000000        0.281087         1
        13        12        11        45     9      180.000000        4.904155         2
        13        12        11        45     9        0.000000        0.030809         3
        13        12        11        45     9      180.000000       -0.161492         4
        13        12        17        16     9        0.000000        0.146668         1
        13        12        17        16     9      180.000000       13.259953         2
        13        12        17        16     9        0.000000       -0.763730         3
        13        12        17        16     9      180.000000       -0.141506         4
        13        12        17        18     9        0.000000       -0.342423         1
        13        12        17        18     9      180.000000       11.440775         2
        13        12        17        18     9        0.000000       -0.243209         3
        13        12        17        18     9      180.000000       -0.294978         4
        13        14        15        16     9        0.000000       -0.145519         1
        13        14        15        16     9      180.000000       16.373248         2
        13        14        15        16     9        0.000000       -1.047992         3
        13        14        15        16     9      180.000000       -0.154882         4
        13        14        15        47     9        0.000000       -0.046088         1
        13        14        15        47     9      180.000000       12.892335         2
        13        14        15        47     9        0.000000       -0.523506         3
        13        14        15        47     9      180.000000        0.163166         4
        13        14        21        22     9        0.000000       -0.043214         1
        13        14        21        22     9      180.000000        4.357357         2
        13        14        21        22     9        0.000000       -0.136817         3
        13        14        21        22     9      180.000000        0.483694         4
        14        13        12        17     9        0.000000       -0.377894         1
        14        13        12        17     9      180.000000       15.900204         2
        14        13        12        17     9        0.000000       -1.169738         3
        14        13        12        17     9      180.000000       -0.359508         4
        14        15        16        17     9        0.000000       -0.136562         1
        14        15        16        17     9      180.000000       19.170728         2
        14        15        16        17     9        0.000000       -2.009435         3
        14        15        16        17     9      180.000000       -0.514029         4
        14        15        16        48     9        0.000000       -0.022668         1
        14        15        16        48     9      180.000000       15.205524         2
        14        15        16        48     9        0.000000       -0.688212         3
        14        15        16        48     9      180.000000        0.047751         4
        14        21        22        23     9        0.000000        0.354015         1
        14        21        22        23     9      180.000000        7.972866         2
        14        21        22        23     9        0.000000        0.560983         3
        14        21        22        23     9      180.000000        0.033220         4
        14        21        22        30     9        0.000000       -0.368433         1
        14        21        22        30     9      180.000000        4.431913         2
        14        21        22        30     9        0.000000        0.505224         3
        14        21        22        30     9      180.000000       -0.080741         4
        15        14        13        46     9        0.000000       -0.093913         1
        15        14        13        46     9      180.000000       13.930442         2
        15        14        13        46     9        0.000000       -0.476015         3
        15        14        13        46     9      180.000000        0.110567         4
        15        14        21        22     9        0.000000        0.029575         1
        15        14        21        22     9      180.000000        4.479553         2
        15        14        21        22     9        0.000000        0.058389         3
        15        14        21        22     9      180.000000        0.525648         4
        15        16        17        18     9        0.000000        0.012336         1
        15        16        17        18     9      180.000000       14.246986         2
        15        16        17        18     9        0.000000        0.115420         3
        15        16        17        18     9      180.000000       -0.235514         4
        16        15        14        21     9        0.000000        0.320702         1
        16        15        14        21     9      180.000000       18.669482         2
        16        15        14        21     9        0.000000        0.310013         3
        16        15        14        21     9      180.000000       -0.495052         4
        16        17        18        19     9        0.000000        1.614439         1
        16        17        18        19     9      180.000000        3.538125         2
        16        17        18        19     9        0.000000        1.241830         3
        16        17        18        19     9      180.000000       -0.418496         4
        16        17        18        20     9        0.000000       -1.819483         1
        16        17        18        20     9      180.000000        2.589796         2
        16        17        18        20     9        0.000000       -0.196544         3
        16        17        18        20     9      180.000000        0.137992         4
        17        12        11        45     9        0.000000        5.885164         1
        17        12        11        45     9      180.000000        3.524785         2
        17        12        11        45     9        0.000000       -0.910221         3
        17        12        11        45     9      180.000000       -0.166566         4
        17        12        13        46     9        0.000000        0.168715         1
        17        12        13        46     9      180.000000       13.049844         2
        17        12        13        46     9        0.000000       -0.387139         3
        17        12        13        46     9      180.000000       -0.059800         4
        17        16        15        47     9        0.000000        0.091412         1
        17        16        15        47     9      180.000000       15.640681         2
        17        16        15        47     9        0.000000       -0.663725         3
        17        16        15        47     9      180.000000       -0.114050         4
        17        18        19        49     9        0.000000        0.542425         1
        17        18        19        49     9      180.000000        7.492526         2
        17        18        19        49     9        0.000000        0.907308         3
        17        18        19        49     9      180.000000       -1.685615         4
        17        18        19        50     9        0.000000        0.542425         1
        17        18        19        50     9      180.000000        7.492526         2
        17        18        19        50     9        0.000000        0.907308         3
        17        18        19        50     9      180.000000       -1.685615         4
        18        17        16        48     9        0.000000        0.203513         1
        18        17        16        48     9      180.000000       12.352373         2
        18        17        16        48     9        0.000000       -0.202987         3
        18        17        16        48     9      180.000000        0.033140         4
        20        18        19        49     9        0.000000        0.574064         1
        20        18        19        49     9      180.000000        9.284841         2
        20        18        19        49     9        0.000000       -0.076918         3
        20        18        19        49     9      180.000000       -1.208096         4
        20        18        19        50     9        0.000000        0.574064         1
        20        18        19        50     9      180.000000        9.284841         2
        20        18        19        50     9        0.000000       -0.076918         3
        20        18        19        50     9      180.000000       -1.208096         4
        21         3         2        23     9        0.000000       -0.334253         1
        21         3         2        23     9      180.000000       33.887098         2
        21         3         2        23     9        0.000000       -6.713509         3
        21         3         2        23     9      180.000000       -0.327641         4
        21         3         4        34     9        0.000000       -0.016686         1
        21         3         4        34     9      180.000000        0.070435         2
        21         3         4        34     9        0.000000        0.404075         3
        21         3         4        34     9      180.000000        0.036922         4
        21         3         4        35     9        0.000000       -0.016686         1
        21         3         4        35     9      180.000000        0.070435         2
        21         3         4        35     9        0.000000        0.404075         3
        21         3         4        35     9      180.000000        0.036922         4
        21        14        13        46     9        0.000000        0.156542         1
        21        14        13        46     9      180.000000       14.838593         2
        21        14        13        46     9        0.000000        0.089286         3
        21        14        13        46     9      180.000000        0.155513         4
        21        14        15        47     9        0.000000       -0.054690         1
        21        14        15        47     9      180.000000       14.449594         2
        21        14        15        47     9        0.000000        0.055858         3
        21        14        15        47     9      180.000000        0.141820         4
        21        22        23        24     9        0.000000        0.218667         1
        21        22        23        24     9      180.000000       10.310616         2
        21        22        23        24     9        0.000000       -2.109811         3
        21        22        23        24     9      180.000000        0.062572         4
        21        22        30        27     9        0.000000       -1.129449         1
        21        22        30        27     9      180.000000       -0.086990         2
        21        22        30        27     9        0.000000        0.339420         3
        21        22        30        27     9      180.000000        0.085040         4
        21        22        30        59     9        0.000000        0.089415         1
        21        22        30        59     9      180.000000        0.153442         2
        21        22        30        59     9        0.000000        0.364102         3
        21        22        30        59     9      180.000000       -0.016224         4
        21        22        30        60     9        0.000000        0.089415         1
        21        22        30        60     9      180.000000        0.153442         2
        21        22        30        60     9        0.000000        0.364102         3
        21        22        30        60     9      180.000000       -0.016224         4
        22        23        24        25     9        0.000000        1.752551         1
        22        23        24        25     9      180.000000        8.157149         2
        22        23        24        25     9        0.000000        0.250450         3
        22        23        24        25     9      180.000000       -0.705305         4
        22        23        24        26     9        0.000000       -0.556122         1
        22        23        24        26     9      180.000000        4.573895         2
        22        23        24        26     9        0.000000       -0.448770         3
        22        23        24        26     9      180.000000       -0.026936         4
        22        30        27        26     9        0.000000        0.214400         1
        22        30        27        26     9      180.000000       -0.498465         2
        22        30        27        26     9        0.000000        0.288957         3
        22        30        27        26     9      180.000000        0.061365         4
        22        30        27        28     9        0.000000       -0.828198         1
        22        30        27        28     9      180.000000        0.355442         2
        22        30        27        28     9        0.000000        0.482821         3
        22        30        27        28     9      180.000000        0.093299         4
        22        30        27        29     9        0.000000       -0.828198         1
        22        30        27        29     9      180.000000        0.355442         2
        22        30        27        29     9        0.000000        0.482821         3
        22        30        27        29     9      180.000000        0.093299         4
        23         2         1        31     9        0.000000       -0.010724         1
        23         2         1        31     9      180.000000       -0.012504         2
        23         2         1        31     9        0.000000        0.127677         3
        23         2         1        31     9      180.000000        0.026680         4
        23         2         1        32     9        0.000000       -0.010724         1
        23         2         1        32     9      180.000000       -0.012504         2
        23         2         1        32     9        0.000000        0.127677         3
        23         2         1        32     9      180.000000        0.026680         4
        23         2         1        33     9        0.000000       -0.010724         1
        23         2         1        33     9      180.000000       -0.012504         2
        23         2         1        33     9        0.000000        0.127677         3
        23         2         1        33     9      180.000000        0.026680         4
        23        22        30        27     9        0.000000       -1.521843         1
        23        22        30        27     9      180.000000        0.432320         2
        23        22        30        27     9        0.000000       -0.328220         3
        23        22        30        27     9      180.000000        0.236379         4
        23        22        30        59     9        0.000000        0.098462         1
        23        22        30        59     9      180.000000       -0.211546         2
        23        22        30        59     9        0.000000       -0.350147         3
        23        22        30        59     9      180.000000        0.082928         4
        23        22        30        60     9        0.000000        0.098462         1
        23        22        30        60     9      180.000000       -0.211546         2
        23        22        30        60     9        0.000000       -0.350147         3
        23        22        30        60     9      180.000000        0.082928         4
        23        24        26        27     9        0.000000        1.064535         1
        23        24        26        27     9      180.000000       -0.987190         2
        23        24        26        27     9        0.000000        0.066600         3
        23        24        26        27     9      180.000000        0.379994         4
        23        24        26        51     9        0.000000        0.050069         1
        23        24        26        51     9      180.000000       -0.115566         2
        23        24        26        51     9        0.000000        0.060045         3
        23        24        26        51     9      180.000000        0.032098         4
        23        24        26        52     9        0.000000        0.050069         1
        23        24        26        52     9      180.000000       -0.115566         2
        23        24        26        52     9        0.000000        0.060045         3
        23        24        26        52     9      180.000000        0.032098         4
        24        23        22        30     9        0.000000        0.192355         1
        24        23        22        30     9      180.000000       11.303776         2
        24        23        22        30     9        0.000000       -0.592314         3
        24        23        22        30     9      180.000000       -0.099490         4
        24        26        27        28     9        0.000000       -0.104603         1
        24        26        27        28     9      180.000000        0.124393         2
        24        26        27        28     9        0.000000        0.169661         3
        24        26        27        28     9      180.000000       -0.093965         4
        24        26        27        29     9        0.000000       -0.104603         1
        24        26        27        29     9      180.000000        0.124393         2
        24        26        27        29     9        0.000000        0.169661         3
        24        26        27        29     9      180.000000       -0.093965         4
        24        26        27        30     9        0.000000        6.772130         1
        24        26        27        30     9      180.000000       -2.558616         2
        24        26        27        30     9        0.000000       -1.043341         3
        24        26        27        30     9      180.000000        0.513638         4
        25        24        26        27     9        0.000000        0.211527         1
        25        24        26        27     9      180.000000        0.156391         2
        25        24        26        27     9        0.000000       -0.247366         3
        25        24        26        27     9      180.000000        0.159356         4
        25        24        26        51     9        0.000000        0.059162         1
        25        24        26        51     9      180.000000        0.179902         2
        25        24        26        51     9        0.000000       -0.274928         3
        25        24        26        51     9      180.000000        0.040109         4
        25        24        26        52     9        0.000000        0.059162         1
        25        24        26        52     9      180.000000        0.179902         2
        25        24        26        52     9        0.000000       -0.274928         3
        25        24        26        52     9      180.000000        0.040109         4
        26        27        28        53     9        0.000000       -0.025782         1
        26        27        28        53     9      180.000000       -0.024588         2
        26        27        28        53     9        0.000000        0.455338         3
        26        27        28        53     9      180.000000        0.008397         4
        26        27        28        54     9        0.000000       -0.025782         1
        26        27        28        54     9      180.000000       -0.024588         2
        26        27        28        54     9        0.000000        0.455338         3
        26        27        28        54     9      180.000000        0.008397         4
        26        27        28        55     9        0.000000       -0.025782         1
        26        27        28        55     9      180.000000       -0.024588         2
        26        27        28        55     9        0.000000        0.455338         3
        26        27        28        55     9      180.000000        0.008397         4
        26        27        29        56     9        0.000000       -0.025782         1
        26        27        29        56     9      180.000000       -0.024588         2
        26        27        29        56     9        0.000000        0.455338         3
        26        27        29        56     9      180.000000        0.008397         4
        26        27        29        57     9        0.000000       -0.025782         1
        26        27        29        57     9      180.000000       -0.024588         2
        26        27        29        57     9        0.000000        0.455338         3
        26        27        29        57     9      180.000000        0.008397         4
        26        27        29        58     9        0.000000       -0.025782         1
        26        27        29        58     9      180.000000       -0.024588         2
        26        27        29        58     9        0.000000        0.455338         3
        26        27        29        58     9      180.000000        0.008397         4
        26        27        30        59     9        0.000000       -0.036867         1
        26        27        30        59     9      180.000000        0.010855         2
        26        27        30        59     9        0.000000        0.237452         3
        26        27        30        59     9      180.000000        0.034530         4
        26        27        30        60     9        0.000000       -0.036867         1
        26        27        30        60     9      180.000000        0.010855         2
        26        27        30        60     9        0.000000        0.237452         3
        26        27        30        60     9      180.000000        0.034530         4
        28        27        26        51     9        0.000000       -0.016516         1
        28        27        26        51     9      180.000000       -0.035482         2
        28        27        26        51     9        0.000000        0.328119         3
        28        27        26        51     9      180.000000       -0.003629         4
        28        27        26        52     9        0.000000       -0.016516         1
        28        27        26        52     9      180.000000       -0.035482         2
        28        27        26        52     9        0.000000        0.328119         3
        28        27        26        52     9      180.000000       -0.003629         4
        28        27        29        56     9        0.000000       -0.078900         1
        28        27        29        56     9      180.000000       -0.013010         2
        28        27        29        56     9        0.000000        0.523327         3
        28        27        29        56     9      180.000000        0.025674         4
        28        27        29        57     9        0.000000       -0.078900         1
        28        27        29        57     9      180.000000       -0.013010         2
        28        27        29        57     9        0.000000        0.523327         3
        28        27        29        57     9      180.000000        0.025674         4
        28        27        29        58     9        0.000000       -0.078900         1
        28        27        29        58     9      180.000000       -0.013010         2
        28        27        29        58     9        0.000000        0.523327         3
        28        27        29        58     9      180.000000        0.025674         4
        28        27        30        59     9        0.000000       -0.006401         1
        28        27        30        59     9      180.000000       -0.007111         2
        28        27        30        59     9        0.000000        0.430489         3
        28        27        30        59     9      180.000000       -0.004178         4
        28        27        30        60     9        0.000000       -0.006401         1
        28        27        30        60     9      180.000000       -0.007111         2
        28        27        30        60     9        0.000000        0.430489         3
        28        27        30        60     9      180.000000       -0.004178         4
        29        27        26        51     9        0.000000       -0.016516         1
        29        27        26        51     9      180.000000       -0.035482         2
        29        27        26        51     9        0.000000        0.328119         3
        29        27        26        51     9      180.000000       -0.003629         4
        29        27        26        52     9        0.000000       -0.016516         1
        29        27        26        52     9      180.000000       -0.035482         2
        29        27        26        52     9        0.000000        0.328119         3
        29        27        26        52     9      180.000000       -0.003629         4
        29        27        28        53     9        0.000000       -0.078900         1
        29        27        28        53     9      180.000000       -0.013010         2
        29        27        28        53     9        0.000000        0.523327         3
        29        27        28        53     9      180.000000        0.025674         4
        29        27        28        54     9        0.000000       -0.078900         1
        29        27        28        54     9      180.000000       -0.013010         2
        29        27        28        54     9        0.000000        0.523327         3
        29        27        28        54     9      180.000000        0.025674         4
        29        27        28        55     9        0.000000       -0.078900         1
        29        27        28        55     9      180.000000       -0.013010         2
        29        27        28        55     9        0.000000        0.523327         3
        29        27        28        55     9      180.000000        0.025674         4
        29        27        30        59     9        0.000000       -0.006401         1
        29        27        30        59     9      180.000000       -0.007111         2
        29        27        30        59     9        0.000000        0.430489         3
        29        27        30        59     9      180.000000       -0.004178         4
        29        27        30        60     9        0.000000       -0.006401         1
        29        27        30        60     9      180.000000       -0.007111         2
        29        27        30        60     9        0.000000        0.430489         3
        29        27        30        60     9      180.000000       -0.004178         4
        30        27        26        51     9        0.000000       -0.056609         1
        30        27        26        51     9      180.000000        0.045660         2
        30        27        26        51     9        0.000000        0.106452         3
        30        27        26        51     9      180.000000        0.055968         4
        30        27        26        52     9        0.000000       -0.056609         1
        30        27        26        52     9      180.000000        0.045660         2
        30        27        26        52     9        0.000000        0.106452         3
        30        27        26        52     9      180.000000        0.055968         4
        30        27        28        53     9        0.000000       -0.059337         1
        30        27        28        53     9      180.000000       -0.014017         2
        30        27        28        53     9        0.000000        0.458082         3
        30        27        28        53     9      180.000000        0.009486         4
        30        27        28        54     9        0.000000       -0.059337         1
        30        27        28        54     9      180.000000       -0.014017         2
        30        27        28        54     9        0.000000        0.458082         3
        30        27        28        54     9      180.000000        0.009486         4
        30        27        28        55     9        0.000000       -0.059337         1
        30        27        28        55     9      180.000000       -0.014017         2
        30        27        28        55     9        0.000000        0.458082         3
        30        27        28        55     9      180.000000        0.009486         4
        30        27        29        56     9        0.000000       -0.059337         1
        30        27        29        56     9      180.000000       -0.014017         2
        30        27        29        56     9        0.000000        0.458082         3
        30        27        29        56     9      180.000000        0.009486         4
        30        27        29        57     9        0.000000       -0.059337         1
        30        27        29        57     9      180.000000       -0.014017         2
        30        27        29        57     9        0.000000        0.458082         3
        30        27        29        57     9      180.000000        0.009486         4
        30        27        29        58     9        0.000000       -0.059337         1
        30        27        29        58     9      180.000000       -0.014017         2
        30        27        29        58     9        0.000000        0.458082         3
        30        27        29        58     9      180.000000        0.009486         4
        34         4         5        36     9        0.000000        0.033801         1
        34         4         5        36     9      180.000000        0.068058         2
        34         4         5        36     9        0.000000        0.600072         3
        34         4         5        36     9      180.000000       -0.019049         4
        34         4         5        37     9        0.000000        0.033801         1
        34         4         5        37     9      180.000000        0.068058         2
        34         4         5        37     9        0.000000        0.600072         3
        34         4         5        37     9      180.000000       -0.019049         4
        35         4         5        36     9        0.000000        0.033801         1
        35         4         5        36     9      180.000000        0.068058         2
        35         4         5        36     9        0.000000        0.600072         3
        35         4         5        36     9      180.000000       -0.019049         4
        35         4         5        37     9        0.000000        0.033801         1
        35         4         5        37     9      180.000000        0.068058         2
        35         4         5        37     9        0.000000        0.600072         3
        35         4         5        37     9      180.000000       -0.019049         4
        36         5         6        38     9        0.000000       -0.118250         1
        36         5         6        38     9      180.000000        0.001219         2
        36         5         6        38     9        0.000000        0.642773         3
        36         5         6        38     9      180.000000       -0.047970         4
        36         5         6        39     9        0.000000       -0.118250         1
        36         5         6        39     9      180.000000        0.001219         2
        36         5         6        39     9        0.000000        0.642773         3
        36         5         6        39     9      180.000000       -0.047970         4
        37         5         6        38     9        0.000000       -0.118250         1
        37         5         6        38     9      180.000000        0.001219         2
        37         5         6        38     9        0.000000        0.642773         3
        37         5         6        38     9      180.000000       -0.047970         4
        37         5         6        39     9        0.000000       -0.118250         1
        37         5         6        39     9      180.000000        0.001219         2
        37         5         6        39     9        0.000000        0.642773         3
        37         5         6        39     9      180.000000       -0.047970         4
        38         6         7        61     9        0.000000       -0.096748         1
        38         6         7        61     9      180.000000        0.047218         2
        38         6         7        61     9        0.000000        0.448434         3
        38         6         7        61     9      180.000000        0.028108         4
        38         6         7        62     9        0.000000       -0.096748         1
        38         6         7        62     9      180.000000        0.047218         2
        38         6         7        62     9        0.000000        0.448434         3
        38         6         7        62     9      180.000000        0.028108         4
        39         6         7        61     9        0.000000       -0.096748         1
        39         6         7        61     9      180.000000        0.047218         2
        39         6         7        61     9        0.000000        0.448434         3
        39         6         7        61     9      180.000000        0.028108         4
        39         6         7        62     9        0.000000       -0.096748         1
        39         6         7        62     9      180.000000        0.047218         2
        39         6         7        62     9        0.000000        0.448434         3
        39         6         7        62     9      180.000000        0.028108         4
        40         8         9        42     9        0.000000       -0.101749         1
        40         8         9        42     9      180.000000       -0.026580         2
        40         8         9        42     9        0.000000        0.587076         3
        40         8         9        42     9      180.000000        0.032748         4
        41         8         9        42     9        0.000000       -0.101749         1
        41         8         9        42     9      180.000000       -0.026580         2
        41         8         9        42     9        0.000000        0.587076         3
        41         8         9        42     9      180.000000        0.032748         4
        42         9         7        61     9        0.000000       -0.362413         1
        42         9         7        61     9      180.000000        0.367870         2
        42         9         7        61     9        0.000000        0.432294         3
        42         9         7        61     9      180.000000        0.035287         4
        42         9         7        62     9        0.000000       -0.362413         1
        42         9         7        62     9      180.000000        0.367870         2
        42         9         7        62     9        0.000000        0.432294         3
        42         9         7        62     9      180.000000        0.035287         4
        42         9         8        63     9        0.000000       -0.101749         1
        42         9         8        63     9      180.000000       -0.026580         2
        42         9         8        63     9        0.000000        0.587076         3
        42         9         8        63     9      180.000000        0.032748         4
        42         9        10        43     9        0.000000       -0.118583         1
        42         9        10        43     9      180.000000       -0.029483         2
        42         9        10        43     9        0.000000        0.762986         3
        42         9        10        43     9      180.000000        0.073001         4
        42         9        10        44     9        0.000000       -0.118583         1
        42         9        10        44     9      180.000000       -0.029483         2
        42         9        10        44     9        0.000000        0.762986         3
        42         9        10        44     9      180.000000        0.073001         4
        43        10        11        45     9        0.000000        0.571657         1
        43        10        11        45     9      180.000000        0.060499         2
        43        10        11        45     9        0.000000        0.121319         3
        43        10        11        45     9      180.000000       -0.122278         4
        44        10        11        45     9        0.000000        0.571657         1
        44        10        11        45     9      180.000000        0.060499         2
        44        10        11        45     9        0.000000        0.121319         3
        44        10        11        45     9      180.000000       -0.122278         4
        47        15        16        48     9        0.000000       -0.185158         1
        47        15        16        48     9      180.000000       12.404909         2
        47        15        16        48     9        0.000000       -0.876224         3
        47        15        16        48     9      180.000000        0.264796         4

[ dihedrals ] ; impropers
;       ai        aj        ak        al funct           phase               k        pn
        18        17        19        20     4      180.000000       27.893333         2
        18        19        20        17     4      180.000000       27.893333         2
        18        20        17        19     4      180.000000       27.893333         2
        24        23        25        26     4      180.000000       27.893333         2
        24        25        26        23     4      180.000000       27.893333         2
        24        26        23        25     4      180.000000       27.893333         2

[ pairs ]
;       ai        aj funct
         1         4     1
         1        21     1
         1        22     1
         1        24     1
         2         5     1
         2        14     1
         2        25     1
         2        26     1
         2        30     1
         2        34     1
         2        35     1
         3         6     1
         3        13     1
         3        15     1
         3        24     1
         3        30     1
         3        31     1
         3        32     1
         3        33     1
         3        36     1
         3        37     1
         4         7     1
         4        14     1
         4        22     1
         4        23     1
         4        38     1
         4        39     1
         5         9     1
         5        21     1
         5        61     1
         5        62     1
         6         8     1
         6        10     1
         6        34     1
         6        35     1
         6        42     1
         7        11     1
         7        36     1
         7        37     1
         7        40     1
         7        41     1
         7        43     1
         7        44     1
         7        63     1
         7        64     1
         7        65     1
         7        66     1
         8        11     1
         8        43     1
         8        44     1
         8        61     1
         8        62     1
         8        64     1
         8        65     1
         8        66     1
         9        12     1
         9        38     1
         9        39     1
         9        45     1
        10        13     1
        10        17     1
        10        40     1
        10        41     1
        10        61     1
        10        62     1
        10        63     1
        10        64     1
        10        65     1
        10        66     1
        11        14     1
        11        16     1
        11        18     1
        11        42     1
        11        46     1
        12        15     1
        12        19     1
        12        20     1
        12        21     1
        12        43     1
        12        44     1
        12        48     1
        13        16     1
        13        18     1
        13        22     1
        13        45     1
        13        47     1
        14        17     1
        14        23     1
        14        30     1
        14        48     1
        15        18     1
        15        22     1
        15        46     1
        16        19     1
        16        20     1
        16        21     1
        17        45     1
        17        46     1
        17        47     1
        17        49     1
        17        50     1
        18        48     1
        20        49     1
        20        50     1
        21        24     1
        21        27     1
        21        34     1
        21        35     1
        21        46     1
        21        47     1
        21        59     1
        21        60     1
        22        25     1
        22        26     1
        22        28     1
        22        29     1
        23        27     1
        23        31     1
        23        32     1
        23        33     1
        23        51     1
        23        52     1
        23        59     1
        23        60     1
        24        28     1
        24        29     1
        24        30     1
        25        27     1
        25        51     1
        25        52     1
        26        53     1
        26        54     1
        26        55     1
        26        56     1
        26        57     1
        26        58     1
        26        59     1
        26        60     1
        28        51     1
        28        52     1
        28        56     1
        28        57     1
        28        58     1
        28        59     1
        28        60     1
        29        51     1
        29        52     1
        29        53     1
        29        54     1
        29        55     1
        29        59     1
        29        60     1
        30        51     1
        30        52     1
        30        53     1
        30        54     1
        30        55     1
        30        56     1
        30        57     1
        30        58     1
        34        36     1
        34        37     1
        35        36     1
        35        37     1
        36        38     1
        36        39     1
        37        38     1
        37        39     1
        38        61     1
        38        62     1
        39        61     1
        39        62     1
        40        42     1
        41        42     1
        42        43     1
        42        44     1
        42        61     1
        42        62     1
        42        63     1
        43        45     1
        44        45     1
        47        48     1
