Generated by PDBParser
432
    1SOL     OW    1  -0.118   0.658   1.204
    1SOL    HW1    2  -0.073   0.728   1.260
    1SOL    HW2    3  -0.051   0.614   1.145
    2SOL     OW    4  -0.697   2.123   0.302
    2SOL    HW1    5  -0.610   2.081   0.277
    2SOL    HW2    6  -0.682   2.219   0.326
    3SOL     OW    7  -0.850   1.830  -0.049
    3SOL    HW1    8  -0.763   1.788  -0.076
    3SOL    HW2    9  -0.873   1.902  -0.115
    4SOL     OW   10   0.245   0.504   0.959
    4SOL    HW1   11   0.230   0.548   1.047
    4SOL    HW2   12   0.335   0.461   0.958
    5SOL     OW   13  -0.556   0.114   1.191
    5SOL    HW1   14  -0.625   0.173   1.147
    5SOL    HW2   15  -0.531   0.040   1.129
    6SOL     OW   16  -0.304   0.522   0.625
    6SOL    HW1   17  -0.230   0.590   0.629
    6SOL    HW2   18  -0.377   0.555   0.567
    7SOL     OW   19   1.228   1.067   1.113
    7SOL    HW1   20   1.291   1.054   1.190
    7SOL    HW2   21   1.266   1.134   1.049
    8SOL     OW   22   0.307  -1.103   0.101
    8SOL    HW1   23   0.277  -1.194   0.131
    8SOL    HW2   24   0.268  -1.033   0.162
    9SOL     OW   25  -0.180  -0.578   0.991
    9SOL    HW1   26  -0.144  -0.505   1.049
    9SOL    HW2   27  -0.281  -0.577   0.996
   10SOL     OW   28   0.210  -0.931   0.306
   10SOL    HW1   29   0.254  -0.966   0.389
   10SOL    HW2   30   0.250  -0.842   0.283
   11SOL     OW   31   0.509   0.378   0.927
   11SOL    HW1   32   0.463   0.304   0.977
   11SOL    HW2   33   0.517   0.352   0.830
   12SOL     OW   34   0.432   0.293   0.646
   12SOL    HW1   35   0.415   0.391   0.635
   12SOL    HW2   36   0.397   0.245   0.566
   13SOL     OW   37   1.132   0.805   1.031
   13SOL    HW1   38   1.206   0.739   1.047
   13SOL    HW2   39   1.160   0.895   1.063
   14SOL     OW   40  -0.553   0.023   1.465
   14SOL    HW1   41  -0.566   0.066   1.376
   14SOL    HW2   42  -0.641   0.013   1.511
   15SOL     OW   43   0.071  -0.687   0.898
   15SOL    HW1   44   0.137  -0.662   0.970
   15SOL    HW2   45  -0.019  -0.650   0.922
   16SOL     OW   46   1.770   0.780   1.051
   16SOL    HW1   47   1.783   0.783   0.952
   16SOL    HW2   48   1.817   0.701   1.089
   17SOL     OW   49   0.239   1.499   0.179
   17SOL    HW1   50   0.167   1.564   0.157
   17SOL    HW2   51   0.246   1.489   0.279
   18SOL     OW   52   0.668   0.484   1.144
   18SOL    HW1   53   0.617   0.442   1.069
   18SOL    HW2   54   0.754   0.522   1.108
   19SOL     OW   55  -0.797  -0.208   1.845
   19SOL    HW1   56  -0.755  -0.199   1.935
   19SOL    HW2   57  -0.749  -0.279   1.792
   20SOL     OW   58   1.446   1.405   1.144
   20SOL    HW1   59   1.446   1.318   1.095
   20SOL    HW2   60   1.532   1.452   1.128
   21SOL     OW   61  -0.017   0.033   1.642
   21SOL    HW1   62   0.033   0.098   1.584
   21SOL    HW2   63  -0.080   0.084   1.702
   22SOL     OW   64   0.868   0.623   0.320
   22SOL    HW1   65   0.919   0.572   0.390
   22SOL    HW2   66   0.927   0.640   0.241
   23SOL     OW   67   0.805   0.147   0.411
   23SOL    HW1   68   0.752   0.228   0.386
   23SOL    HW2   69   0.826   0.093   0.329
   24SOL     OW   70  -0.311   0.793  -1.225
   24SOL    HW1   71  -0.232   0.837  -1.184
   24SOL    HW2   72  -0.298   0.786  -1.325
   25SOL     OW   73   0.574   0.149   1.241
   25SOL    HW1   74   0.499   0.180   1.182
   25SOL    HW2   75   0.624   0.076   1.196
   26SOL     OW   76   0.542  -1.414   0.820
   26SOL    HW1   77   0.579  -1.437   0.729
   26SOL    HW2   78   0.604  -1.348   0.864
   27SOL     OW   79   0.324   0.561   0.687
   27SOL    HW1   80   0.253   0.543   0.618
   27SOL    HW2   81   0.285   0.546   0.779
   28SOL     OW   82   0.830   1.820  -0.514
   28SOL    HW1   83   0.885   1.866  -0.445
   28SOL    HW2   84   0.888   1.794  -0.592
   29SOL     OW   85  -1.562   1.520  -0.073
   29SOL    HW1   86  -1.493   1.459  -0.113
   29SOL    HW2   87  -1.642   1.524  -0.133
   30SOL     OW   88   0.559   0.153  -0.132
   30SOL    HW1   89   0.567   0.100  -0.047
   30SOL    HW2   90   0.485   0.116  -0.188
   31SOL     OW   91  -0.284   1.128   0.997
   31SOL    HW1   92  -0.237   1.050   0.956
   31SOL    HW2   93  -0.298   1.110   1.095
   32SOL     OW   94  -0.283  -1.161   1.900
   32SOL    HW1   95  -0.319  -1.252   1.919
   32SOL    HW2   96  -0.356  -1.094   1.914
   33SOL     OW   97  -1.771  -0.982   2.327
   33SOL    HW1   98  -1.788  -0.934   2.413
   33SOL    HW2   99  -1.775  -1.081   2.343
   34SOL     OW  100   0.677   0.381   0.317
   34SOL    HW1  101   0.609   0.432   0.369
   34SOL    HW2  102   0.651   0.379   0.220
   35SOL     OW  103   0.725   0.137   0.923
   35SOL    HW1  104   0.698   0.128   0.827
   35SOL    HW2  105   0.691   0.059   0.975
   36SOL     OW  106  -0.721   0.548   1.192
   36SOL    HW1  107  -0.639   0.550   1.135
   36SOL    HW2  108  -0.702   0.594   1.279
   37SOL     OW  109  -0.355   1.365  -1.291
   37SOL    HW1  110  -0.317   1.357  -1.383
   37SOL    HW2  111  -0.315   1.294  -1.233
   38SOL     OW  112  -0.420   0.491   1.981
   38SOL    HW1  113  -0.390   0.496   2.076
   38SOL    HW2  114  -0.356   0.542   1.923
   39SOL     OW  115  -1.352   0.632   1.602
   39SOL    HW1  116  -1.256   0.604   1.596
   39SOL    HW2  117  -1.364   0.690   1.683
   40SOL     OW  118   0.354  -0.189   1.662
   40SOL    HW1  119   0.291  -0.174   1.586
   40SOL    HW2  120   0.363  -0.287   1.680
   41SOL     OW  121  -0.081  -0.412  -2.250
   41SOL    HW1  122  -0.123  -0.393  -2.160
   41SOL    HW2  123  -0.151  -0.404  -2.321
   42SOL     OW  124   1.276   0.573  -0.824
   42SOL    HW1  125   1.292   0.568  -0.923
   42SOL    HW2  126   1.336   0.643  -0.785
   43SOL     OW  127   0.086   1.287   0.808
   43SOL    HW1  128   0.087   1.205   0.866
   43SOL    HW2  129   0.102   1.260   0.713
   44SOL     OW  130   1.247  -0.932   1.198
   44SOL    HW1  131   1.163  -0.881   1.180
   44SOL    HW2  132   1.291  -0.956   1.111
   45SOL     OW  133   1.249   0.061   0.464
   45SOL    HW1  134   1.328   0.073   0.524
   45SOL    HW2  135   1.220  -0.034   0.465
   46SOL     OW  136  -1.305   2.010  -0.287
   46SOL    HW1  137  -1.216   2.035  -0.326
   46SOL    HW2  138  -1.296   1.996  -0.189
   47SOL     OW  139  -0.229   0.309  -1.280
   47SOL    HW1  140  -0.172   0.228  -1.269
   47SOL    HW2  141  -0.323   0.281  -1.300
   48SOL     OW  142   1.250   0.597   0.700
   48SOL    HW1  143   1.330   0.642   0.661
   48SOL    HW2  144   1.279   0.523   0.760
   49SOL     OW  145   1.102   1.811   0.884
   49SOL    HW1  146   1.093   1.864   0.800
   49SOL    HW2  147   1.106   1.873   0.963
   50SOL     OW  148   0.355   1.416   0.441
   50SOL    HW1  149   0.321   1.481   0.509
   50SOL    HW2  150   0.350   1.323   0.477
   51SOL     OW  151  -0.168  -1.069   1.031
   51SOL    HW1  152  -0.100  -1.115   1.089
   51SOL    HW2  153  -0.248  -1.046   1.086
   52SOL     OW  154   0.451   0.528   0.412
   52SOL    HW1  155   0.439   0.624   0.436
   52SOL    HW2  156   0.382   0.501   0.345
   53SOL     OW  157   0.089   1.044   0.961
   53SOL    HW1  158   0.156   0.971   0.945
   53SOL    HW2  159   0.019   1.012   1.025
   54SOL     OW  160  -0.714   0.498   1.945
   54SOL    HW1  161  -0.616   0.482   1.954
   54SOL    HW2  162  -0.762   0.464   2.026
   55SOL     OW  163  -0.880  -0.561  -0.698
   55SOL    HW1  164  -0.900  -0.616  -0.616
   55SOL    HW2  165  -0.956  -0.498  -0.714
   56SOL     OW  166  -1.302   0.726  -1.519
   56SOL    HW1  167  -1.310   0.697  -1.423
   56SOL    HW2  168  -1.248   0.810  -1.523
   57SOL     OW  169   0.277   1.641   0.597
   57SOL    HW1  170   0.243   1.640   0.692
   57SOL    HW2  171   0.373   1.670   0.597
   58SOL     OW  172  -0.889   0.639   0.966
   58SOL    HW1  173  -0.848   0.649   0.875
   58SOL    HW2  174  -0.820   0.607   1.030
   59SOL     OW  175  -0.367   1.566   0.800
   59SOL    HW1  176  -0.353   1.569   0.701
   59SOL    HW2  177  -0.302   1.500   0.840
   60SOL     OW  178   1.581   1.600  -0.889
   60SOL    HW1  179   1.523   1.650  -0.825
   60SOL    HW2  180   1.644   1.664  -0.934
   61SOL     OW  181   0.514  -1.652   0.518
   61SOL    HW1  182   0.586  -1.585   0.535
   61SOL    HW2  183   0.554  -1.736   0.482
   62SOL     OW  184   1.680  -1.423   0.765
   62SOL    HW1  185   1.688  -1.367   0.847
   62SOL    HW2  186   1.601  -1.393   0.711
   63SOL     OW  187  -0.288   0.530  -1.097
   63SOL    HW1  188  -0.263   0.459  -1.162
   63SOL    HW2  189  -0.297   0.618  -1.145
   64SOL     OW  190   1.517   1.254  -0.411
   64SOL    HW1  191   1.519   1.340  -0.462
   64SOL    HW2  192   1.527   1.273  -0.313
   65SOL     OW  193   1.227   2.200  -0.043
   65SOL    HW1  194   1.175   2.115  -0.034
   65SOL    HW2  195   1.186   2.270   0.016
   66SOL     OW  196   0.729   0.354   0.653
   66SOL    HW1  197   0.677   0.438   0.669
   66SOL    HW2  198   0.667   0.281   0.624
   67SOL     OW  199   0.143   1.795   0.358
   67SOL    HW1  200   0.182   1.887   0.348
   67SOL    HW2  201   0.181   1.752   0.440
   68SOL     OW  202  -0.793   0.852   1.226
   68SOL    HW1  203  -0.764   0.788   1.298
   68SOL    HW2  204  -0.717   0.868   1.163
   69SOL     OW  205  -1.047   2.139  -0.664
   69SOL    HW1  206  -1.014   2.232  -0.676
   69SOL    HW2  207  -1.046   2.116  -0.566
   70SOL     OW  208  -1.437   1.384   0.355
   70SOL    HW1  209  -1.477   1.463   0.308
   70SOL    HW2  210  -1.366   1.416   0.418
   71SOL     OW  211   0.545   1.710   0.881
   71SOL    HW1  212   0.568   1.687   0.786
   71SOL    HW2  213   0.446   1.719   0.889
   72SOL     OW  214  -1.175  -1.364   0.399
   72SOL    HW1  215  -1.086  -1.410   0.401
   72SOL    HW2  216  -1.243  -1.421   0.447
   73SOL     OW  217   0.541   0.866   1.442
   73SOL    HW1  218   0.445   0.863   1.472
   73SOL    HW2  219   0.592   0.793   1.487
   74SOL     OW  220   0.687   0.512  -0.844
   74SOL    HW1  221   0.671   0.477  -0.751
   74SOL    HW2  222   0.631   0.594  -0.858
   75SOL     OW  223  -1.734   0.568  -0.762
   75SOL    HW1  224  -1.788   0.620  -0.696
   75SOL    HW2  225  -1.734   0.616  -0.850
   76SOL     OW  226  -0.715  -1.128   1.491
   76SOL    HW1  227  -0.807  -1.157   1.519
   76SOL    HW2  228  -0.699  -1.034   1.521
   77SOL     OW  229   0.045   0.553  -1.172
   77SOL    HW1  230   0.004   0.596  -1.092
   77SOL    HW2  231   0.009   0.595  -1.256
   78SOL     OW  232   0.130   2.111  -1.519
   78SOL    HW1  233   0.172   2.178  -1.581
   78SOL    HW2  234   0.031   2.122  -1.519
   79SOL     OW  235   0.307  -1.262   0.923
   79SOL    HW1  236   0.310  -1.219   1.013
   79SOL    HW2  237   0.392  -1.311   0.906
   80SOL     OW  238  -0.562  -0.441  -0.740
   80SOL    HW1  239  -0.635  -0.465  -0.675
   80SOL    HW2  240  -0.579  -0.350  -0.778
   81SOL     OW  241   0.096  -2.455  -3.176
   81SOL    HW1  242   0.019  -2.398  -3.147
   81SOL    HW2  243   0.182  -2.410  -3.152
   82SOL     OW  244   1.495   0.147   0.614
   82SOL    HW1  245   1.561   0.192   0.554
   82SOL    HW2  246   1.528   0.152   0.709
   83SOL     OW  247  -0.873   0.449   2.186
   83SOL    HW1  248  -0.792   0.411   2.230
   83SOL    HW2  249  -0.949   0.452   2.252
   84SOL     OW  250   0.295  -1.815  -0.405
   84SOL    HW1  251   0.359  -1.891  -0.419
   84SOL    HW2  252   0.219  -1.823  -0.470
   85SOL     OW  253   0.802   0.115  -1.287
   85SOL    HW1  254   0.888   0.078  -1.252
   85SOL    HW2  255   0.762   0.175  -1.218
   86SOL     OW  256  -0.079   1.234  -2.047
   86SOL    HW1  257  -0.160   1.272  -2.002
   86SOL    HW2  258  -0.009   1.304  -2.055
   87SOL     OW  259   0.744  -1.787   0.265
   87SOL    HW1  260   0.843  -1.805   0.271
   87SOL    HW2  261   0.695  -1.874   0.257
   88SOL     OW  262  -1.078   1.110  -1.744
   88SOL    HW1  263  -1.085   1.209  -1.757
   88SOL    HW2  264  -1.120   1.064  -1.823
   89SOL     OW  265  -0.564   0.203  -1.677
   89SOL    HW1  266  -0.636   0.138  -1.654
   89SOL    HW2  267  -0.572   0.283  -1.617
   90SOL     OW  268  -1.327   0.708   0.915
   90SOL    HW1  269  -1.402   0.715   0.981
   90SOL    HW2  270  -1.265   0.634   0.943
   91SOL     OW  271  -0.052  -1.307  -2.023
   91SOL    HW1  272  -0.020  -1.381  -2.083
   91SOL    HW2  273  -0.077  -1.345  -1.935
   92SOL     OW  274  -1.616   0.413  -1.272
   92SOL    HW1  275  -1.579   0.378  -1.185
   92SOL    HW2  276  -1.627   0.512  -1.265
   93SOL     OW  277   1.890   0.063  -1.775
   93SOL    HW1  278   1.800   0.025  -1.753
   93SOL    HW2  279   1.893   0.089  -1.871
   94SOL     OW  280   0.360  -1.334  -2.114
   94SOL    HW1  281   0.295  -1.395  -2.159
   94SOL    HW2  282   0.452  -1.373  -2.120
   95SOL     OW  283  -1.985   1.283   0.442
   95SOL    HW1  284  -2.018   1.246   0.355
   95SOL    HW2  285  -2.030   1.370   0.460
   96SOL     OW  286   2.320  -0.810   0.194
   96SOL    HW1  287   2.269  -0.726   0.176
   96SOL    HW2  288   2.410  -0.786   0.231
   97SOL     OW  289  -1.816   1.099  -0.793
   97SOL    HW1  290  -1.831   1.195  -0.820
   97SOL    HW2  291  -1.814   1.094  -0.693
   98SOL     OW  292  -1.527  -1.529  -0.189
   98SOL    HW1  293  -1.440  -1.550  -0.234
   98SOL    HW2  294  -1.596  -1.508  -0.258
   99SOL     OW  295  -1.417   1.003  -1.143
   99SOL    HW1  296  -1.337   1.009  -1.084
   99SOL    HW2  297  -1.494   1.052  -1.100
  100SOL     OW  298   2.026  -0.625   0.411
  100SOL    HW1  299   2.040  -0.555   0.480
  100SOL    HW2  300   2.081  -0.604   0.330
  101SOL     OW  301  -1.265   1.567  -2.174
  101SOL    HW1  302  -1.275   1.506  -2.253
  101SOL    HW2  303  -1.355   1.586  -2.135
  102SOL     OW  304  -0.316  -1.796  -0.605
  102SOL    HW1  305  -0.331  -1.727  -0.534
  102SOL    HW2  306  -0.403  -1.839  -0.630
  103SOL     OW  307   0.213   1.091   1.239
  103SOL    HW1  308   0.117   1.065   1.244
  103SOL    HW2  309   0.270   1.009   1.247
  104SOL     OW  310   1.029  -0.375   1.176
  104SOL    HW1  311   1.005  -0.461   1.132
  104SOL    HW2  312   0.996  -0.299   1.120
  105SOL     OW  313  -1.112  -0.420  -0.776
  105SOL    HW1  314  -1.203  -0.419  -0.734
  105SOL    HW2  315  -1.088  -0.327  -0.805
  106SOL     OW  316  -0.274   0.701  -1.506
  106SOL    HW1  317  -0.308   0.607  -1.509
  106SOL    HW2  318  -0.275   0.741  -1.598
  107SOL     OW  319  -0.158  -1.397  -1.674
  107SOL    HW1  320  -0.179  -1.311  -1.628
  107SOL    HW2  321  -0.210  -1.472  -1.631
  108SOL     OW  322   2.017  -1.837   1.260
  108SOL    HW1  323   2.054  -1.751   1.225
  108SOL    HW2  324   1.995  -1.898   1.183
  109SOL     OW  325   2.240   1.848  -0.855
  109SOL    HW1  326   2.180   1.799  -0.790
  109SOL    HW2  327   2.191   1.861  -0.941
  110SOL     OW  328  -0.125   1.942  -0.619
  110SOL    HW1  329  -0.102   1.959  -0.524
  110SOL    HW2  330  -0.224   1.957  -0.633
  111SOL     OW  331   0.099  -0.625  -2.978
  111SOL    HW1  332   0.058  -0.583  -2.897
  111SOL    HW2  333   0.040  -0.609  -3.057
  112SOL     OW  334   0.581  -1.597  -0.254
  112SOL    HW1  335   0.495  -1.628  -0.295
  112SOL    HW2  336   0.656  -1.614  -0.318
  113SOL     OW  337  -0.722   0.952   0.634
  113SOL    HW1  338  -0.766   1.005   0.562
  113SOL    HW2  339  -0.658   1.010   0.684
  114SOL     OW  340  -1.539   1.614   0.202
  114SOL    HW1  341  -1.549   1.585   0.107
  114SOL    HW2  342  -1.580   1.705   0.213
  115SOL     OW  343   0.680   0.408   1.426
  115SOL    HW1  344   0.652   0.315   1.448
  115SOL    HW2  345   0.673   0.423   1.327
  116SOL     OW  346   0.071  -1.228   1.148
  116SOL    HW1  347   0.059  -1.284   1.066
  116SOL    HW2  348   0.021  -1.270   1.225
  117SOL     OW  349   1.006   0.517   0.561
  117SOL    HW1  350   0.983   0.423   0.586
  117SOL    HW2  351   1.087   0.546   0.612
  118SOL     OW  352  -0.541   1.688   0.993
  118SOL    HW1  353  -0.474   1.658   0.925
  118SOL    HW2  354  -0.616   1.622   0.997
  119SOL     OW  355  -1.118  -0.152  -0.863
  119SOL    HW1  356  -1.211  -0.164  -0.896
  119SOL    HW2  357  -1.106  -0.058  -0.829
  120SOL     OW  358   0.767  -1.074   1.329
  120SOL    HW1  359   0.719  -0.987   1.340
  120SOL    HW2  360   0.854  -1.058   1.282
  121SOL     OW  361   1.021   0.222   0.601
  121SOL    HW1  362   1.082   0.153   0.563
  121SOL    HW2  363   0.927   0.206   0.569
  122SOL     OW  364   0.256   0.851   1.514
  122SOL    HW1  365   0.177   0.850   1.452
  122SOL    HW2  366   0.224   0.844   1.608
  123SOL     OW  367  -1.561  -1.135   1.349
  123SOL    HW1  368  -1.469  -1.115   1.382
  123SOL    HW2  369  -1.567  -1.231   1.322
  124SOL     OW  370  -0.901  -1.451   0.439
  124SOL    HW1  371  -0.816  -1.431   0.391
  124SOL    HW2  372  -0.905  -1.398   0.524
  125SOL     OW  373   1.562   1.753   1.072
  125SOL    HW1  374   1.530   1.739   0.978
  125SOL    HW2  375   1.660   1.734   1.077
  126SOL     OW  376   1.272  -0.850   1.476
  126SOL    HW1  377   1.262  -0.886   1.383
  126SOL    HW2  378   1.181  -0.830   1.513
  127SOL     OW  379  -1.539   0.728   1.122
  127SOL    HW1  380  -1.527   0.673   1.205
  127SOL    HW2  381  -1.557   0.823   1.147
  128SOL     OW  382  -1.309   0.962   0.409
  128SOL    HW1  383  -1.320   1.020   0.329
  128SOL    HW2  384  -1.229   0.903   0.397
  129SOL     OW  385   0.357  -0.487   1.658
  129SOL    HW1  386   0.409  -0.475   1.573
  129SOL    HW2  387   0.319  -0.579   1.661
  130SOL     OW  388  -0.082   0.060  -1.234
  130SOL    HW1  389  -0.108   0.013  -1.149
  130SOL    HW2  390  -0.045  -0.007  -1.298
  131SOL     OW  391   0.592   0.025   0.127
  131SOL    HW1  392   0.691   0.010   0.137
  131SOL    HW2  393   0.554   0.056   0.214
  132SOL     OW  394   0.553   0.142   1.540
  132SOL    HW1  395   0.553   0.129   1.440
  132SOL    HW2  396   0.473   0.097   1.580
  133SOL     OW  397   0.885  -0.191   0.972
  133SOL    HW1  398   0.802  -0.148   1.008
  133SOL    HW2  399   0.860  -0.268   0.913
  134SOL     OW  400  -2.333   1.421  -0.089
  134SOL    HW1  401  -2.238   1.408  -0.058
  134SOL    HW2  402  -2.382   1.334  -0.081
  135SOL     OW  403   0.222   1.537   0.878
  135SOL    HW1  404   0.180   1.449   0.856
  135SOL    HW2  405   0.167   1.584   0.947
  136SOL     OW  406   0.839  -0.445   0.830
  136SOL    HW1  407   0.871  -0.506   0.903
  136SOL    HW2  408   0.886  -0.467   0.745
  137SOL     OW  409  -1.507   0.564   1.368
  137SOL    HW1  410  -1.485   0.473   1.331
  137SOL    HW2  411  -1.448   0.583   1.447
  138SOL     OW  412  -0.260   2.156  -0.255
  138SOL    HW1  413  -0.312   2.070  -0.253
  138SOL    HW2  414  -0.322   2.233  -0.237
  139SOL     OW  415  -1.331  -0.203   2.436
  139SOL    HW1  416  -1.359  -0.215   2.340
  139SOL    HW2  417  -1.244  -0.154   2.440
  140SOL     OW  418  -0.978   1.793  -0.922
  140SOL    HW1  419  -1.003   1.888  -0.902
  140SOL    HW2  420  -1.060   1.736  -0.916
  141SOL     OW  421   1.656   1.285  -0.767
  141SOL    HW1  422   1.638   1.373  -0.812
  141SOL    HW2  423   1.636   1.292  -0.670
  142SOL     OW  424  -0.431   0.915   1.768
  142SOL    HW1  425  -0.385   0.998   1.736
  142SOL    HW2  426  -0.492   0.881   1.697
  143SOL     OW  427   0.636   1.852  -0.735
  143SOL    HW1  428   0.683   1.784  -0.793
  143SOL    HW2  429   0.682   1.855  -0.646
  144SOL     OW  430  -0.178   1.379   0.924
  144SOL    HW1  431  -0.213   1.287   0.941
  144SOL    HW2  432  -0.085   1.373   0.885
    4.1756    4.1756    4.1756
