; ITP file created by ByteFF-ML, 2025-12-06 03:43:45.247327

[ atomtypes ]
;name           bonded.type        at.num        mass        charge   ptype           sigma         epsilon
 c0bf                                   6      0.0000       0.00000       A     3.31481e-01     4.12855e-01
 c1bf                                   6      0.0000       0.00000       A     3.31481e-01     4.12855e-01
 c2bf                                   6      0.0000       0.00000       A     3.31481e-01     4.12855e-01
 c3bf                                   6      0.0000       0.00000       A     3.31481e-01     4.12855e-01
 c4bf                                   6      0.0000       0.00000       A     3.31481e-01     4.12855e-01
 c5bf                                   6      0.0000       0.00000       A     3.31481e-01     4.12855e-01
 h6bf                                   1      0.0000       0.00000       A     2.62457e-01     6.73477e-02
 h7bf                                   1      0.0000       0.00000       A     2.62457e-01     6.73477e-02
 h8bf                                   1      0.0000       0.00000       A     2.62457e-01     6.73477e-02
 h9bf                                   1      0.0000       0.00000       A     2.62457e-01     6.73477e-02
 h10bf                                  1      0.0000       0.00000       A     2.62457e-01     6.73477e-02
 h11bf                                  1      0.0000       0.00000       A     2.62457e-01     6.73477e-02

[ moleculetype ]
;name             nrexcl
 benzene               3

[ atoms ]
;       nr            type      resi   res      atom      cgnr      charge          mass ; qtot
         1            c0bf         1   UNL        c0         1    -0.11294       12.0110 ; qtot   -0.113
         2            c1bf         1   UNL        c1         2    -0.11294       12.0110 ; qtot   -0.226
         3            c2bf         1   UNL        c2         3    -0.11294       12.0110 ; qtot   -0.339
         4            c3bf         1   UNL        c3         4    -0.11294       12.0110 ; qtot   -0.452
         5            c4bf         1   UNL        c4         5    -0.11294       12.0110 ; qtot   -0.565
         6            c5bf         1   UNL        c5         6    -0.11294       12.0110 ; qtot   -0.678
         7            h6bf         1   UNL        h6         7     0.11294        1.0080 ; qtot   -0.565
         8            h7bf         1   UNL        h7         8     0.11294        1.0080 ; qtot   -0.452
         9            h8bf         1   UNL        h8         9     0.11294        1.0080 ; qtot   -0.339
        10            h9bf         1   UNL        h9        10     0.11294        1.0080 ; qtot   -0.226
        11           h10bf         1   UNL       h10        11     0.11294        1.0080 ; qtot   -0.113
        12           h11bf         1   UNL       h11        12     0.11294        1.0080 ; qtot   -0.000

[ bonds ]
;       ai        aj funct               r               k
         1         2     1        0.139992   306887.385400
         1         6     1        0.139992   306887.385400
         1        12     1        0.108638   319567.632764
         2         3     1        0.139992   306887.385400
         2         7     1        0.108638   319567.632764
         3         4     1        0.139992   306887.385400
         3         8     1        0.108638   319567.632764
         4         5     1        0.139992   306887.385400
         4         9     1        0.108638   319567.632764
         5         6     1        0.139992   306887.385400
         5        10     1        0.108638   319567.632764
         6        11     1        0.108638   319567.632764

[ angles ]
;       ai        aj        ak funct           theta             cth
         1         2         3     1      119.990067      692.173007
         1         2         7     1      120.035217      434.272941
         1         6         5     1      119.990067      692.173007
         1         6        11     1      120.035217      434.272941
         2         1         6     1      119.990067      692.173007
         2         1        12     1      120.035217      434.272941
         2         3         4     1      119.990067      692.173007
         2         3         8     1      120.035217      434.272941
         3         2         7     1      120.035217      434.272941
         3         4         5     1      119.990067      692.173007
         3         4         9     1      120.035217      434.272941
         4         3         8     1      120.035217      434.272941
         4         5         6     1      119.990067      692.173007
         4         5        10     1      120.035217      434.272941
         5         4         9     1      120.035217      434.272941
         5         6        11     1      120.035217      434.272941
         6         1        12     1      120.035217      434.272941
         6         5        10     1      120.035217      434.272941

[ dihedrals ] ; propers for gromacs 4.5 or higher, use funct 9
;       ai        aj        ak        al funct           phase               k        pn
         1         2         3         4     9        0.000000       -0.063951         1
         1         2         3         4     9      180.000000       18.894945         2
         1         2         3         4     9        0.000000       -1.611935         3
         1         2         3         4     9      180.000000       -0.419552         4
         1         2         3         8     9        0.000000       -0.023498         1
         1         2         3         8     9      180.000000       14.473253         2
         1         2         3         8     9        0.000000       -0.764287         3
         1         2         3         8     9      180.000000        0.150973         4
         1         6         5         4     9        0.000000       -0.063951         1
         1         6         5         4     9      180.000000       18.894945         2
         1         6         5         4     9        0.000000       -1.611935         3
         1         6         5         4     9      180.000000       -0.419552         4
         1         6         5        10     9        0.000000       -0.023498         1
         1         6         5        10     9      180.000000       14.473253         2
         1         6         5        10     9        0.000000       -0.764287         3
         1         6         5        10     9      180.000000        0.150973         4
         2         1         6         5     9        0.000000       -0.063951         1
         2         1         6         5     9      180.000000       18.894945         2
         2         1         6         5     9        0.000000       -1.611935         3
         2         1         6         5     9      180.000000       -0.419552         4
         2         1         6        11     9        0.000000       -0.023498         1
         2         1         6        11     9      180.000000       14.473253         2
         2         1         6        11     9        0.000000       -0.764287         3
         2         1         6        11     9      180.000000        0.150973         4
         2         3         4         5     9        0.000000       -0.063950         1
         2         3         4         5     9      180.000000       18.894945         2
         2         3         4         5     9        0.000000       -1.611935         3
         2         3         4         5     9      180.000000       -0.419552         4
         2         3         4         9     9        0.000000       -0.023498         1
         2         3         4         9     9      180.000000       14.473254         2
         2         3         4         9     9        0.000000       -0.764287         3
         2         3         4         9     9      180.000000        0.150973         4
         3         2         1         6     9        0.000000       -0.063950         1
         3         2         1         6     9      180.000000       18.894945         2
         3         2         1         6     9        0.000000       -1.611935         3
         3         2         1         6     9      180.000000       -0.419552         4
         3         2         1        12     9        0.000000       -0.023498         1
         3         2         1        12     9      180.000000       14.473251         2
         3         2         1        12     9        0.000000       -0.764287         3
         3         2         1        12     9      180.000000        0.150973         4
         3         4         5         6     9        0.000000       -0.063950         1
         3         4         5         6     9      180.000000       18.894943         2
         3         4         5         6     9        0.000000       -1.611935         3
         3         4         5         6     9      180.000000       -0.419552         4
         3         4         5        10     9        0.000000       -0.023498         1
         3         4         5        10     9      180.000000       14.473251         2
         3         4         5        10     9        0.000000       -0.764287         3
         3         4         5        10     9      180.000000        0.150973         4
         4         3         2         7     9        0.000000       -0.023498         1
         4         3         2         7     9      180.000000       14.473253         2
         4         3         2         7     9        0.000000       -0.764287         3
         4         3         2         7     9      180.000000        0.150972         4
         4         5         6        11     9        0.000000       -0.023498         1
         4         5         6        11     9      180.000000       14.473253         2
         4         5         6        11     9        0.000000       -0.764287         3
         4         5         6        11     9      180.000000        0.150972         4
         5         4         3         8     9        0.000000       -0.023498         1
         5         4         3         8     9      180.000000       14.473253         2
         5         4         3         8     9        0.000000       -0.764287         3
         5         4         3         8     9      180.000000        0.150972         4
         5         6         1        12     9        0.000000       -0.023498         1
         5         6         1        12     9      180.000000       14.473254         2
         5         6         1        12     9        0.000000       -0.764287         3
         5         6         1        12     9      180.000000        0.150973         4
         6         1         2         7     9        0.000000       -0.023498         1
         6         1         2         7     9      180.000000       14.473254         2
         6         1         2         7     9        0.000000       -0.764287         3
         6         1         2         7     9      180.000000        0.150973         4
         6         5         4         9     9        0.000000       -0.023498         1
         6         5         4         9     9      180.000000       14.473254         2
         6         5         4         9     9        0.000000       -0.764287         3
         6         5         4         9     9      180.000000        0.150973         4
         7         2         1        12     9        0.000000       -0.085336         1
         7         2         1        12     9      180.000000       11.523798         2
         7         2         1        12     9        0.000000       -0.597248         3
         7         2         1        12     9      180.000000        0.278788         4
         7         2         3         8     9        0.000000       -0.085336         1
         7         2         3         8     9      180.000000       11.523798         2
         7         2         3         8     9        0.000000       -0.597248         3
         7         2         3         8     9      180.000000        0.278788         4
         8         3         4         9     9        0.000000       -0.085336         1
         8         3         4         9     9      180.000000       11.523798         2
         8         3         4         9     9        0.000000       -0.597248         3
         8         3         4         9     9      180.000000        0.278788         4
         9         4         5        10     9        0.000000       -0.085336         1
         9         4         5        10     9      180.000000       11.523798         2
         9         4         5        10     9        0.000000       -0.597249         3
         9         4         5        10     9      180.000000        0.278788         4
        10         5         6        11     9        0.000000       -0.085336         1
        10         5         6        11     9      180.000000       11.523798         2
        10         5         6        11     9        0.000000       -0.597249         3
        10         5         6        11     9      180.000000        0.278788         4
        11         6         1        12     9        0.000000       -0.085336         1
        11         6         1        12     9      180.000000       11.523798         2
        11         6         1        12     9        0.000000       -0.597249         3
        11         6         1        12     9      180.000000        0.278788         4

[ pairs ]
;       ai        aj funct
         1         4     1
         1         8     1
         1        10     1
         2         5     1
         2         9     1
         2        11     1
         3         6     1
         3        10     1
         3        12     1
         4         7     1
         4        11     1
         5         8     1
         5        12     1
         6         7     1
         6         9     1
         7         8     1
         7        12     1
         8         9     1
         9        10     1
        10        11     1
        11        12     1
