; ITP file created by ByteFF-ML, 2025-12-06 03:42:24.344729

[ atomtypes ]
;name           bonded.type        at.num        mass        charge   ptype           sigma         epsilon
 c0bf                                   6      0.0000       0.00000       A     3.31443e-01     4.12570e-01
 c1bf                                   6      0.0000       0.00000       A     3.31496e-01     4.12507e-01
 c2bf                                   6      0.0000       0.00000       A     3.31500e-01     4.13068e-01
 c3bf                                   6      0.0000       0.00000       A     3.31497e-01     4.12822e-01
 c4bf                                   6      0.0000       0.00000       A     3.31500e-01     4.13068e-01
 c5bf                                   6      0.0000       0.00000       A     3.31496e-01     4.12507e-01
 c6bf                                   6      0.0000       0.00000       A     3.39778e-01     4.51140e-01
 c7bf                                   6      0.0000       0.00000       A     3.39803e-01     4.51728e-01
 c8bf                                   6      0.0000       0.00000       A     3.39827e-01     4.50904e-01
 c9bf                                   6      0.0000       0.00000       A     3.39756e-01     4.50530e-01
 h10bf                                  1      0.0000       0.00000       A     2.62515e-01     6.74690e-02
 h11bf                                  1      0.0000       0.00000       A     2.62458e-01     6.72983e-02
 h12bf                                  1      0.0000       0.00000       A     2.62457e-01     6.73477e-02
 h13bf                                  1      0.0000       0.00000       A     2.62458e-01     6.72983e-02
 h14bf                                  1      0.0000       0.00000       A     2.62515e-01     6.74690e-02
 h15bf                                  1      0.0000       0.00000       A     2.60042e-01     8.76290e-02
 h16bf                                  1      0.0000       0.00000       A     2.60042e-01     8.76290e-02
 h17bf                                  1      0.0000       0.00000       A     2.60117e-01     8.76082e-02
 h18bf                                  1      0.0000       0.00000       A     2.60117e-01     8.76082e-02
 h19bf                                  1      0.0000       0.00000       A     2.60054e-01     8.74024e-02
 h20bf                                  1      0.0000       0.00000       A     2.60054e-01     8.74024e-02
 h21bf                                  1      0.0000       0.00000       A     2.60024e-01     8.73625e-02
 h22bf                                  1      0.0000       0.00000       A     2.60024e-01     8.73625e-02
 h23bf                                  1      0.0000       0.00000       A     2.60024e-01     8.73625e-02

[ moleculetype ]
;name             nrexcl
 butyl_benzene         3

[ atoms ]
;       nr            type      resi   res      atom      cgnr      charge          mass ; qtot
         1            c0bf         1   UNL        c0         1    -0.08385       12.0110 ; qtot   -0.084
         2            c1bf         1   UNL        c1         2    -0.10918       12.0110 ; qtot   -0.193
         3            c2bf         1   UNL        c2         3    -0.11256       12.0110 ; qtot   -0.306
         4            c3bf         1   UNL        c3         4    -0.10967       12.0110 ; qtot   -0.415
         5            c4bf         1   UNL        c4         5    -0.11256       12.0110 ; qtot   -0.528
         6            c5bf         1   UNL        c5         6    -0.10918       12.0110 ; qtot   -0.637
         7            c6bf         1   UNL        c6         7    -0.03135       12.0110 ; qtot   -0.668
         8            c7bf         1   UNL        c7         8    -0.07476       12.0110 ; qtot   -0.743
         9            c8bf         1   UNL        c8         9    -0.07987       12.0110 ; qtot   -0.823
        10            c9bf         1   UNL        c9        10    -0.09237       12.0110 ; qtot   -0.915
        11           h10bf         1   UNL       h10        11     0.11299        1.0080 ; qtot   -0.802
        12           h11bf         1   UNL       h11        12     0.11392        1.0080 ; qtot   -0.688
        13           h12bf         1   UNL       h12        13     0.11320        1.0080 ; qtot   -0.575
        14           h13bf         1   UNL       h13        14     0.11392        1.0080 ; qtot   -0.461
        15           h14bf         1   UNL       h14        15     0.11299        1.0080 ; qtot   -0.348
        16           h15bf         1   UNL       h15        16     0.04454        1.0080 ; qtot   -0.304
        17           h16bf         1   UNL       h16        17     0.04454        1.0080 ; qtot   -0.259
        18           h17bf         1   UNL       h17        18     0.04123        1.0080 ; qtot   -0.218
        19           h18bf         1   UNL       h18        19     0.04123        1.0080 ; qtot   -0.177
        20           h19bf         1   UNL       h19        20     0.03845        1.0080 ; qtot   -0.138
        21           h20bf         1   UNL       h20        21     0.03845        1.0080 ; qtot   -0.100
        22           h21bf         1   UNL       h21        22     0.03329        1.0080 ; qtot   -0.067
        23           h22bf         1   UNL       h22        23     0.03329        1.0080 ; qtot   -0.033
        24           h23bf         1   UNL       h23        24     0.03331        1.0080 ; qtot    0.000

[ bonds ]
;       ai        aj funct               r               k
         1         2     1        0.140348   288955.584717
         1         6     1        0.140348   288955.584717
         1         7     1        0.151280   199156.114429
         2         3     1        0.139851   311990.389355
         2        11     1        0.108721   315253.087061
         3         4     1        0.139928   307155.295215
         3        12     1        0.108648   318935.027490
         4         5     1        0.139928   307155.295215
         4        13     1        0.108629   319751.295654
         5         6     1        0.139851   311990.389355
         5        14     1        0.108648   318935.027490
         6        15     1        0.108721   315253.087061
         7         8     1        0.154233   175392.646680
         7        16     1        0.109564   293301.617676
         7        17     1        0.109564   293301.617676
         8         9     1        0.153570   184041.388892
         8        18     1        0.109648   292646.744043
         8        19     1        0.109648   292646.744043
         9        10     1        0.153376   190610.695361
         9        20     1        0.109648   292882.170654
         9        21     1        0.109648   292882.170654
        10        22     1        0.109474   297715.145215
        10        23     1        0.109474   297715.145215
        10        24     1        0.109474   297715.145215

[ angles ]
;       ai        aj        ak funct           theta             cth
         1         2         3     1      120.984230      706.173983
         1         2        11     1      119.421303      400.884097
         1         6         5     1      120.984230      706.173983
         1         6        15     1      119.421303      400.884097
         1         7         8     1      112.757957      560.914244
         1         7        16     1      109.583984      500.082487
         1         7        17     1      109.583984      500.082487
         2         1         6     1      118.224892      693.995974
         2         1         7     1      120.906044      499.489069
         2         3         4     1      120.106750      701.260004
         2         3        12     1      119.853539      430.351048
         3         2        11     1      119.675598      433.168015
         3         4         5     1      119.528236      692.984704
         3         4        13     1      120.249794      431.984721
         4         3        12     1      120.073624      430.858087
         4         5         6     1      120.106750      701.260004
         4         5        14     1      120.073624      430.858087
         5         4        13     1      120.249794      431.984721
         5         6        15     1      119.675598      433.168015
         6         1         7     1      120.906044      499.489069
         6         5        14     1      119.853539      430.351112
         7         8         9     1      113.878799      615.714135
         7         8        18     1      108.874123      481.777998
         7         8        19     1      108.874123      481.777998
         8         7        16     1      109.035965      490.228579
         8         7        17     1      109.035965      490.228579
         8         9        10     1      113.418396      641.922360
         8         9        20     1      109.108948      514.945404
         8         9        21     1      109.108948      514.945404
         9         8        18     1      109.412094      513.752757
         9         8        19     1      109.412094      513.752757
         9        10        22     1      111.230934      521.716313
         9        10        23     1      111.230934      521.716313
         9        10        24     1      111.230934      521.716313
        10         9        20     1      109.385910      514.054542
        10         9        21     1      109.385910      514.054542
        16         7        17     1      106.501511      363.083557
        18         8        19     1      106.361816      361.848646
        20         9        21     1      106.163651      362.119116
        22        10        23     1      107.677078      363.257401
        22        10        24     1      107.677078      363.257401
        23        10        24     1      107.677078      363.257401

[ dihedrals ] ; propers for gromacs 4.5 or higher, use funct 9
;       ai        aj        ak        al funct           phase               k        pn
         1         2         3         4     9        0.000000        0.032955         1
         1         2         3         4     9      180.000000       18.546824         2
         1         2         3         4     9        0.000000       -1.531245         3
         1         2         3         4     9      180.000000       -0.379407         4
         1         2         3        12     9        0.000000        0.002481         1
         1         2         3        12     9      180.000000       14.372336         2
         1         2         3        12     9        0.000000       -0.717832         3
         1         2         3        12     9      180.000000        0.131340         4
         1         6         5         4     9        0.000000        0.032955         1
         1         6         5         4     9      180.000000       18.546824         2
         1         6         5         4     9        0.000000       -1.531245         3
         1         6         5         4     9      180.000000       -0.379407         4
         1         6         5        14     9        0.000000        0.002482         1
         1         6         5        14     9      180.000000       14.372336         2
         1         6         5        14     9        0.000000       -0.717832         3
         1         6         5        14     9      180.000000        0.131340         4
         1         7         8         9     9        0.000000        0.364920         1
         1         7         8         9     9      180.000000       -0.165713         2
         1         7         8         9     9        0.000000        0.783685         3
         1         7         8         9     9      180.000000        0.010945         4
         1         7         8        18     9        0.000000       -0.056480         1
         1         7         8        18     9      180.000000        0.070599         2
         1         7         8        18     9        0.000000        0.709600         3
         1         7         8        18     9      180.000000       -0.002570         4
         1         7         8        19     9        0.000000       -0.056480         1
         1         7         8        19     9      180.000000        0.070599         2
         1         7         8        19     9        0.000000        0.709600         3
         1         7         8        19     9      180.000000       -0.002570         4
         2         1         6         5     9        0.000000       -0.131923         1
         2         1         6         5     9      180.000000       19.053146         2
         2         1         6         5     9        0.000000       -1.389872         3
         2         1         6         5     9      180.000000       -0.446140         4
         2         1         6        15     9        0.000000       -0.071398         1
         2         1         6        15     9      180.000000       14.538319         2
         2         1         6        15     9        0.000000       -0.572411         3
         2         1         6        15     9      180.000000        0.017316         4
         2         1         7         8     9        0.000000       -0.070339         1
         2         1         7         8     9      180.000000        0.788310         2
         2         1         7         8     9        0.000000        0.119545         3
         2         1         7         8     9      180.000000        0.126424         4
         2         1         7        16     9        0.000000        0.004078         1
         2         1         7        16     9      180.000000       -0.045834         2
         2         1         7        16     9        0.000000        0.052721         3
         2         1         7        16     9      180.000000        0.009057         4
         2         1         7        17     9        0.000000        0.004078         1
         2         1         7        17     9      180.000000       -0.045834         2
         2         1         7        17     9        0.000000        0.052721         3
         2         1         7        17     9      180.000000        0.009057         4
         2         3         4         5     9        0.000000       -0.048452         1
         2         3         4         5     9      180.000000       18.744430         2
         2         3         4         5     9        0.000000       -1.623348         3
         2         3         4         5     9      180.000000       -0.403065         4
         2         3         4        13     9        0.000000        0.013086         1
         2         3         4        13     9      180.000000       14.406064         2
         2         3         4        13     9        0.000000       -0.782781         3
         2         3         4        13     9      180.000000        0.130638         4
         3         2         1         6     9        0.000000       -0.131923         1
         3         2         1         6     9      180.000000       19.053146         2
         3         2         1         6     9        0.000000       -1.389872         3
         3         2         1         6     9      180.000000       -0.446140         4
         3         2         1         7     9        0.000000       -0.012190         1
         3         2         1         7     9      180.000000       16.029207         2
         3         2         1         7     9        0.000000       -0.228526         3
         3         2         1         7     9      180.000000       -0.227521         4
         3         4         5         6     9        0.000000       -0.048452         1
         3         4         5         6     9      180.000000       18.744432         2
         3         4         5         6     9        0.000000       -1.623347         3
         3         4         5         6     9      180.000000       -0.403066         4
         3         4         5        14     9        0.000000        0.001680         1
         3         4         5        14     9      180.000000       14.333282         2
         3         4         5        14     9        0.000000       -0.817838         3
         3         4         5        14     9      180.000000        0.157157         4
         4         3         2        11     9        0.000000        0.050803         1
         4         3         2        11     9      180.000000       14.580096         2
         4         3         2        11     9        0.000000       -0.719002         3
         4         3         2        11     9      180.000000        0.142810         4
         4         5         6        15     9        0.000000        0.050804         1
         4         5         6        15     9      180.000000       14.580096         2
         4         5         6        15     9        0.000000       -0.719002         3
         4         5         6        15     9      180.000000        0.142811         4
         5         4         3        12     9        0.000000        0.001680         1
         5         4         3        12     9      180.000000       14.333280         2
         5         4         3        12     9        0.000000       -0.817838         3
         5         4         3        12     9      180.000000        0.157158         4
         5         6         1         7     9        0.000000       -0.012190         1
         5         6         1         7     9      180.000000       16.029207         2
         5         6         1         7     9        0.000000       -0.228526         3
         5         6         1         7     9      180.000000       -0.227521         4
         6         1         2        11     9        0.000000       -0.071398         1
         6         1         2        11     9      180.000000       14.538319         2
         6         1         2        11     9        0.000000       -0.572410         3
         6         1         2        11     9      180.000000        0.017315         4
         6         1         7         8     9        0.000000       -0.070340         1
         6         1         7         8     9      180.000000        0.788310         2
         6         1         7         8     9        0.000000        0.119545         3
         6         1         7         8     9      180.000000        0.126424         4
         6         1         7        16     9        0.000000        0.004078         1
         6         1         7        16     9      180.000000       -0.045834         2
         6         1         7        16     9        0.000000        0.052722         3
         6         1         7        16     9      180.000000        0.009057         4
         6         1         7        17     9        0.000000        0.004078         1
         6         1         7        17     9      180.000000       -0.045834         2
         6         1         7        17     9        0.000000        0.052722         3
         6         1         7        17     9      180.000000        0.009057         4
         6         5         4        13     9        0.000000        0.013086         1
         6         5         4        13     9      180.000000       14.406064         2
         6         5         4        13     9        0.000000       -0.782781         3
         6         5         4        13     9      180.000000        0.130638         4
         7         1         2        11     9        0.000000       -0.216187         1
         7         1         2        11     9      180.000000       12.938265         2
         7         1         2        11     9        0.000000       -0.417339         3
         7         1         2        11     9      180.000000        0.213042         4
         7         1         6        15     9        0.000000       -0.216187         1
         7         1         6        15     9      180.000000       12.938267         2
         7         1         6        15     9        0.000000       -0.417339         3
         7         1         6        15     9      180.000000        0.213043         4
         7         8         9        10     9        0.000000        0.635185         1
         7         8         9        10     9      180.000000       -0.102037         2
         7         8         9        10     9        0.000000        0.617453         3
         7         8         9        10     9      180.000000       -0.017685         4
         7         8         9        20     9        0.000000       -0.249687         1
         7         8         9        20     9      180.000000        0.089774         2
         7         8         9        20     9        0.000000        0.544090         3
         7         8         9        20     9      180.000000        0.044873         4
         7         8         9        21     9        0.000000       -0.249687         1
         7         8         9        21     9      180.000000        0.089774         2
         7         8         9        21     9        0.000000        0.544090         3
         7         8         9        21     9      180.000000        0.044873         4
         8         9        10        22     9        0.000000       -0.061889         1
         8         9        10        22     9      180.000000        0.064794         2
         8         9        10        22     9        0.000000        0.528305         3
         8         9        10        22     9      180.000000        0.031986         4
         8         9        10        23     9        0.000000       -0.061889         1
         8         9        10        23     9      180.000000        0.064794         2
         8         9        10        23     9        0.000000        0.528305         3
         8         9        10        23     9      180.000000        0.031986         4
         8         9        10        24     9        0.000000       -0.061889         1
         8         9        10        24     9      180.000000        0.064794         2
         8         9        10        24     9        0.000000        0.528305         3
         8         9        10        24     9      180.000000        0.031986         4
         9         8         7        16     9        0.000000       -0.195440         1
         9         8         7        16     9      180.000000        0.084123         2
         9         8         7        16     9        0.000000        0.596283         3
         9         8         7        16     9      180.000000        0.052597         4
         9         8         7        17     9        0.000000       -0.195440         1
         9         8         7        17     9      180.000000        0.084123         2
         9         8         7        17     9        0.000000        0.596282         3
         9         8         7        17     9      180.000000        0.052596         4
        10         9         8        18     9        0.000000       -0.192335         1
        10         9         8        18     9      180.000000        0.098584         2
        10         9         8        18     9        0.000000        0.600832         3
        10         9         8        18     9      180.000000        0.061043         4
        10         9         8        19     9        0.000000       -0.192335         1
        10         9         8        19     9      180.000000        0.098586         2
        10         9         8        19     9        0.000000        0.600832         3
        10         9         8        19     9      180.000000        0.061043         4
        11         2         3        12     9        0.000000       -0.121995         1
        11         2         3        12     9      180.000000       11.696820         2
        11         2         3        12     9        0.000000       -0.673959         3
        11         2         3        12     9      180.000000        0.301366         4
        12         3         4        13     9        0.000000       -0.088340         1
        12         3         4        13     9      180.000000       11.528995         2
        12         3         4        13     9        0.000000       -0.594134         3
        12         3         4        13     9      180.000000        0.264318         4
        13         4         5        14     9        0.000000       -0.088339         1
        13         4         5        14     9      180.000000       11.528994         2
        13         4         5        14     9        0.000000       -0.594134         3
        13         4         5        14     9      180.000000        0.264318         4
        14         5         6        15     9        0.000000       -0.121995         1
        14         5         6        15     9      180.000000       11.696818         2
        14         5         6        15     9        0.000000       -0.673959         3
        14         5         6        15     9      180.000000        0.301367         4
        16         7         8        18     9        0.000000        0.091542         1
        16         7         8        18     9      180.000000       -0.011477         2
        16         7         8        18     9        0.000000        0.608603         3
        16         7         8        18     9      180.000000       -0.038372         4
        16         7         8        19     9        0.000000        0.091541         1
        16         7         8        19     9      180.000000       -0.011476         2
        16         7         8        19     9        0.000000        0.608603         3
        16         7         8        19     9      180.000000       -0.038372         4
        17         7         8        18     9        0.000000        0.091542         1
        17         7         8        18     9      180.000000       -0.011477         2
        17         7         8        18     9        0.000000        0.608603         3
        17         7         8        18     9      180.000000       -0.038372         4
        17         7         8        19     9        0.000000        0.091541         1
        17         7         8        19     9      180.000000       -0.011476         2
        17         7         8        19     9        0.000000        0.608603         3
        17         7         8        19     9      180.000000       -0.038372         4
        18         8         9        20     9        0.000000        0.152254         1
        18         8         9        20     9      180.000000       -0.049683         2
        18         8         9        20     9        0.000000        0.583962         3
        18         8         9        20     9      180.000000       -0.043176         4
        18         8         9        21     9        0.000000        0.152254         1
        18         8         9        21     9      180.000000       -0.049683         2
        18         8         9        21     9        0.000000        0.583962         3
        18         8         9        21     9      180.000000       -0.043176         4
        19         8         9        20     9        0.000000        0.152254         1
        19         8         9        20     9      180.000000       -0.049683         2
        19         8         9        20     9        0.000000        0.583962         3
        19         8         9        20     9      180.000000       -0.043177         4
        19         8         9        21     9        0.000000        0.152254         1
        19         8         9        21     9      180.000000       -0.049683         2
        19         8         9        21     9        0.000000        0.583962         3
        19         8         9        21     9      180.000000       -0.043176         4
        20         9        10        22     9        0.000000        0.005021         1
        20         9        10        22     9      180.000000        0.026657         2
        20         9        10        22     9        0.000000        0.540897         3
        20         9        10        22     9      180.000000       -0.000056         4
        20         9        10        23     9        0.000000        0.005021         1
        20         9        10        23     9      180.000000        0.026657         2
        20         9        10        23     9        0.000000        0.540897         3
        20         9        10        23     9      180.000000       -0.000056         4
        20         9        10        24     9        0.000000        0.005021         1
        20         9        10        24     9      180.000000        0.026657         2
        20         9        10        24     9        0.000000        0.540897         3
        20         9        10        24     9      180.000000       -0.000056         4
        21         9        10        22     9        0.000000        0.005021         1
        21         9        10        22     9      180.000000        0.026657         2
        21         9        10        22     9        0.000000        0.540897         3
        21         9        10        22     9      180.000000       -0.000056         4
        21         9        10        23     9        0.000000        0.005021         1
        21         9        10        23     9      180.000000        0.026657         2
        21         9        10        23     9        0.000000        0.540897         3
        21         9        10        23     9      180.000000       -0.000056         4
        21         9        10        24     9        0.000000        0.005021         1
        21         9        10        24     9      180.000000        0.026657         2
        21         9        10        24     9        0.000000        0.540897         3
        21         9        10        24     9      180.000000       -0.000056         4

[ dihedrals ] ; impropers
;       ai        aj        ak        al funct           phase               k        pn
         2         1         3        11     4      180.000000        0.273279         2
         2         3        11         1     4      180.000000        0.273279         2
         2        11         1         3     4      180.000000        0.273279         2
         6         1         5        15     4      180.000000        0.273279         2
         6         5        15         1     4      180.000000        0.273279         2
         6        15         1         5     4      180.000000        0.273279         2

[ pairs ]
;       ai        aj funct
         1         4     1
         1         9     1
         1        12     1
         1        14     1
         1        18     1
         1        19     1
         2         5     1
         2         8     1
         2        13     1
         2        15     1
         2        16     1
         2        17     1
         3         6     1
         3         7     1
         3        14     1
         4        11     1
         4        15     1
         5         7     1
         5        12     1
         6         8     1
         6        11     1
         6        13     1
         6        16     1
         6        17     1
         7        10     1
         7        11     1
         7        15     1
         7        20     1
         7        21     1
         8        22     1
         8        23     1
         8        24     1
         9        16     1
         9        17     1
        10        18     1
        10        19     1
        11        12     1
        12        13     1
        13        14     1
        14        15     1
        16        18     1
        16        19     1
        17        18     1
        17        19     1
        18        20     1
        18        21     1
        19        20     1
        19        21     1
        20        22     1
        20        23     1
        20        24     1
        21        22     1
        21        23     1
        21        24     1
