; ITP file created by ByteFF-ML, 2025-12-06 03:42:02.242974

[ atomtypes ]
;name           bonded.type        at.num        mass        charge   ptype           sigma         epsilon
 c0bf                                   6      0.0000       0.00000       A     3.31435e-01     4.12469e-01
 c1bf                                   6      0.0000       0.00000       A     3.31500e-01     4.12782e-01
 c2bf                                   6      0.0000       0.00000       A     3.31500e-01     4.13068e-01
 c3bf                                   6      0.0000       0.00000       A     3.31497e-01     4.12822e-01
 c4bf                                   6      0.0000       0.00000       A     3.31500e-01     4.13068e-01
 c5bf                                   6      0.0000       0.00000       A     3.31500e-01     4.12782e-01
 c6bf                                   6      0.0000       0.00000       A     3.39724e-01     4.50416e-01
 c7bf                                   6      0.0000       0.00000       A     3.39869e-01     4.51795e-01
 c8bf                                   6      0.0000       0.00000       A     3.39759e-01     4.49809e-01
 h9bf                                   1      0.0000       0.00000       A     2.62515e-01     6.74690e-02
 h10bf                                  1      0.0000       0.00000       A     2.62458e-01     6.72983e-02
 h11bf                                  1      0.0000       0.00000       A     2.62457e-01     6.73477e-02
 h12bf                                  1      0.0000       0.00000       A     2.62458e-01     6.72983e-02
 h13bf                                  1      0.0000       0.00000       A     2.62515e-01     6.74690e-02
 h14bf                                  1      0.0000       0.00000       A     2.60087e-01     8.81525e-02
 h15bf                                  1      0.0000       0.00000       A     2.60087e-01     8.81525e-02
 h16bf                                  1      0.0000       0.00000       A     2.59890e-01     8.81413e-02
 h17bf                                  1      0.0000       0.00000       A     2.59952e-01     8.76513e-02
 h18bf                                  1      0.0000       0.00000       A     2.59952e-01     8.76513e-02
 h19bf                                  1      0.0000       0.00000       A     2.59952e-01     8.76513e-02
 c20bf                                  6      0.0000       0.00000       A     3.39759e-01     4.49809e-01
 h21bf                                  1      0.0000       0.00000       A     2.59952e-01     8.76513e-02
 h22bf                                  1      0.0000       0.00000       A     2.59952e-01     8.76513e-02
 h23bf                                  1      0.0000       0.00000       A     2.59952e-01     8.76513e-02

[ moleculetype ]
;name             nrexcl
 isobutyl_benzene       3

[ atoms ]
;       nr            type      resi   res      atom      cgnr      charge          mass ; qtot
         1            c0bf         1   UNL        c0         1    -0.08165       12.0110 ; qtot   -0.082
         2            c1bf         1   UNL        c1         2    -0.10932       12.0110 ; qtot   -0.191
         3            c2bf         1   UNL        c2         3    -0.11255       12.0110 ; qtot   -0.304
         4            c3bf         1   UNL        c3         4    -0.10967       12.0110 ; qtot   -0.413
         5            c4bf         1   UNL        c4         5    -0.11255       12.0110 ; qtot   -0.526
         6            c5bf         1   UNL        c5         6    -0.10932       12.0110 ; qtot   -0.635
         7            c6bf         1   UNL        c6         7    -0.03097       12.0110 ; qtot   -0.666
         8            c7bf         1   UNL        c7         8    -0.06154       12.0110 ; qtot   -0.728
         9            c8bf         1   UNL        c8         9    -0.09194       12.0110 ; qtot   -0.820
        10            h9bf         1   UNL        h9        10     0.11328        1.0080 ; qtot   -0.706
        11           h10bf         1   UNL       h10        11     0.11392        1.0080 ; qtot   -0.592
        12           h11bf         1   UNL       h11        12     0.11320        1.0080 ; qtot   -0.479
        13           h12bf         1   UNL       h12        13     0.11392        1.0080 ; qtot   -0.365
        14           h13bf         1   UNL       h13        14     0.11328        1.0080 ; qtot   -0.252
        15           h14bf         1   UNL       h14        15     0.04422        1.0080 ; qtot   -0.208
        16           h15bf         1   UNL       h15        16     0.04422        1.0080 ; qtot   -0.163
        17           h16bf         1   UNL       h16        17     0.04577        1.0080 ; qtot   -0.118
        18           h17bf         1   UNL       h17        18     0.03494        1.0080 ; qtot   -0.083
        19           h18bf         1   UNL       h18        19     0.03494        1.0080 ; qtot   -0.048
        20           h19bf         1   UNL       h19        20     0.03494        1.0080 ; qtot   -0.013
        21           c20bf         1   UNL       c20        21    -0.09194       12.0110 ; qtot   -0.105
        22           h21bf         1   UNL       h21        22     0.03494        1.0080 ; qtot   -0.070
        23           h22bf         1   UNL       h22        23     0.03494        1.0080 ; qtot   -0.035
        24           h23bf         1   UNL       h23        24     0.03494        1.0080 ; qtot    0.000

[ bonds ]
;       ai        aj funct               r               k
         1         2     1        0.140354   288478.832422
         1         6     1        0.140354   288478.832422
         1         7     1        0.151281   198483.428662
         2         3     1        0.139847   311498.238184
         2        10     1        0.108713   315478.145605
         3         4     1        0.139928   307155.295215
         3        11     1        0.108648   318935.027490
         4         5     1        0.139928   307155.295215
         4        12     1        0.108629   319751.295654
         5         6     1        0.139847   311498.238184
         5        13     1        0.108648   318935.027490
         6        14     1        0.108713   315478.145605
         7         8     1        0.154879   162492.435425
         7        15     1        0.109601   292008.009863
         7        16     1        0.109601   292008.009863
         8         9     1        0.153562   184803.914209
         8        17     1        0.109757   297509.852393
         8        21     1        0.153562   184803.914209
         9        18     1        0.109469   297559.751904
         9        19     1        0.109469   297559.751904
         9        20     1        0.109469   297559.751904
        21        22     1        0.109469   297559.777441
        21        23     1        0.109469   297559.777441
        21        24     1        0.109469   297559.777441

[ angles ]
;       ai        aj        ak funct           theta             cth
         1         2         3     1      121.011513      705.777902
         1         2        10     1      119.413101      396.536723
         1         6         5     1      121.011513      705.777902
         1         6        14     1      119.413101      396.536723
         1         7         8     1      114.010704      542.783407
         1         7        15     1      109.453110      500.397200
         1         7        16     1      109.453110      500.397200
         2         1         6     1      118.198166      705.508230
         2         1         7     1      120.927841      504.812375
         2         3         4     1      120.104935      703.974727
         2         3        11     1      119.838364      429.740328
         3         2        10     1      119.663597      431.097402
         3         4         5     1      119.528236      692.984704
         3         4        12     1      120.249794      431.984721
         4         3        11     1      120.073624      430.858087
         4         5         6     1      120.104935      703.974727
         4         5        13     1      120.073624      430.858087
         5         4        12     1      120.249794      431.984721
         5         6        14     1      119.663597      431.097402
         6         1         7     1      120.927841      504.812375
         6         5        13     1      119.838364      429.740328
         7         8         9     1      111.262344      603.191248
         7         8        17     1      107.112106      480.225948
         7         8        21     1      111.262344      603.191312
         8         7        15     1      108.427780      481.896905
         8         7        16     1      108.427780      481.896905
         8         9        18     1      111.126930      510.260143
         8         9        19     1      111.126930      510.260143
         8         9        20     1      111.126930      510.260143
         8        21        22     1      111.126930      510.260143
         8        21        23     1      111.126930      510.260143
         8        21        24     1      111.126930      510.260143
         9         8        17     1      107.949120      507.280122
         9         8        21     1      110.835487      639.528703
        15         7        16     1      106.491455      364.111170
        17         8        21     1      107.949120      507.280185
        18         9        19     1      107.809631      361.819534
        18         9        20     1      107.809631      361.819534
        19         9        20     1      107.809631      361.819534
        22        21        23     1      107.809631      361.819534
        22        21        24     1      107.809631      361.819565
        23        21        24     1      107.809631      361.819565

[ dihedrals ] ; propers for gromacs 4.5 or higher, use funct 9
;       ai        aj        ak        al funct           phase               k        pn
         1         2         3         4     9        0.000000        0.046437         1
         1         2         3         4     9      180.000000       18.490264         2
         1         2         3         4     9        0.000000       -1.493908         3
         1         2         3         4     9      180.000000       -0.392624         4
         1         2         3        11     9        0.000000       -0.001851         1
         1         2         3        11     9      180.000000       14.390089         2
         1         2         3        11     9        0.000000       -0.693708         3
         1         2         3        11     9      180.000000        0.135110         4
         1         6         5         4     9        0.000000        0.046437         1
         1         6         5         4     9      180.000000       18.490264         2
         1         6         5         4     9        0.000000       -1.493908         3
         1         6         5         4     9      180.000000       -0.392624         4
         1         6         5        13     9        0.000000       -0.001852         1
         1         6         5        13     9      180.000000       14.390087         2
         1         6         5        13     9        0.000000       -0.693708         3
         1         6         5        13     9      180.000000        0.135111         4
         1         7         8         9     9        0.000000        0.631454         1
         1         7         8         9     9      180.000000       -0.147157         2
         1         7         8         9     9        0.000000        0.880052         3
         1         7         8         9     9      180.000000        0.039526         4
         1         7         8        17     9        0.000000       -0.304716         1
         1         7         8        17     9      180.000000        0.083113         2
         1         7         8        17     9        0.000000        0.726485         3
         1         7         8        17     9      180.000000       -0.018193         4
         1         7         8        21     9        0.000000        0.631454         1
         1         7         8        21     9      180.000000       -0.147157         2
         1         7         8        21     9        0.000000        0.880053         3
         1         7         8        21     9      180.000000        0.039526         4
         2         1         6         5     9        0.000000       -0.121993         1
         2         1         6         5     9      180.000000       19.041817         2
         2         1         6         5     9        0.000000       -1.340554         3
         2         1         6         5     9      180.000000       -0.455840         4
         2         1         6        14     9        0.000000       -0.075774         1
         2         1         6        14     9      180.000000       14.388991         2
         2         1         6        14     9        0.000000       -0.561354         3
         2         1         6        14     9      180.000000        0.029689         4
         2         1         7         8     9        0.000000        0.042496         1
         2         1         7         8     9      180.000000        0.369202         2
         2         1         7         8     9        0.000000        0.211438         3
         2         1         7         8     9      180.000000        0.066184         4
         2         1         7        15     9        0.000000        0.015374         1
         2         1         7        15     9      180.000000       -0.029351         2
         2         1         7        15     9        0.000000        0.085037         3
         2         1         7        15     9      180.000000        0.021794         4
         2         1         7        16     9        0.000000        0.015374         1
         2         1         7        16     9      180.000000       -0.029351         2
         2         1         7        16     9        0.000000        0.085037         3
         2         1         7        16     9      180.000000        0.021794         4
         2         3         4         5     9        0.000000       -0.056133         1
         2         3         4         5     9      180.000000       18.791408         2
         2         3         4         5     9        0.000000       -1.630597         3
         2         3         4         5     9      180.000000       -0.405611         4
         2         3         4        12     9        0.000000        0.017687         1
         2         3         4        12     9      180.000000       14.380186         2
         2         3         4        12     9        0.000000       -0.784655         3
         2         3         4        12     9      180.000000        0.135616         4
         3         2         1         6     9        0.000000       -0.121993         1
         3         2         1         6     9      180.000000       19.041817         2
         3         2         1         6     9        0.000000       -1.340554         3
         3         2         1         6     9      180.000000       -0.455840         4
         3         2         1         7     9        0.000000       -0.012410         1
         3         2         1         7     9      180.000000       15.886997         2
         3         2         1         7     9        0.000000       -0.198226         3
         3         2         1         7     9      180.000000       -0.221042         4
         3         4         5         6     9        0.000000       -0.056133         1
         3         4         5         6     9      180.000000       18.791408         2
         3         4         5         6     9        0.000000       -1.630597         3
         3         4         5         6     9      180.000000       -0.405611         4
         3         4         5        13     9        0.000000        0.001680         1
         3         4         5        13     9      180.000000       14.333282         2
         3         4         5        13     9        0.000000       -0.817838         3
         3         4         5        13     9      180.000000        0.157157         4
         4         3         2        10     9        0.000000        0.046978         1
         4         3         2        10     9      180.000000       14.498473         2
         4         3         2        10     9        0.000000       -0.709581         3
         4         3         2        10     9      180.000000        0.136454         4
         4         5         6        14     9        0.000000        0.046979         1
         4         5         6        14     9      180.000000       14.498473         2
         4         5         6        14     9        0.000000       -0.709580         3
         4         5         6        14     9      180.000000        0.136454         4
         5         4         3        11     9        0.000000        0.001680         1
         5         4         3        11     9      180.000000       14.333280         2
         5         4         3        11     9        0.000000       -0.817838         3
         5         4         3        11     9      180.000000        0.157158         4
         5         6         1         7     9        0.000000       -0.012410         1
         5         6         1         7     9      180.000000       15.886997         2
         5         6         1         7     9        0.000000       -0.198226         3
         5         6         1         7     9      180.000000       -0.221042         4
         6         1         2        10     9        0.000000       -0.075775         1
         6         1         2        10     9      180.000000       14.388993         2
         6         1         2        10     9        0.000000       -0.561354         3
         6         1         2        10     9      180.000000        0.029689         4
         6         1         7         8     9        0.000000        0.042497         1
         6         1         7         8     9      180.000000        0.369202         2
         6         1         7         8     9        0.000000        0.211439         3
         6         1         7         8     9      180.000000        0.066184         4
         6         1         7        15     9        0.000000        0.015375         1
         6         1         7        15     9      180.000000       -0.029350         2
         6         1         7        15     9        0.000000        0.085037         3
         6         1         7        15     9      180.000000        0.021794         4
         6         1         7        16     9        0.000000        0.015375         1
         6         1         7        16     9      180.000000       -0.029350         2
         6         1         7        16     9        0.000000        0.085037         3
         6         1         7        16     9      180.000000        0.021794         4
         6         5         4        12     9        0.000000        0.017687         1
         6         5         4        12     9      180.000000       14.380188         2
         6         5         4        12     9        0.000000       -0.784656         3
         6         5         4        12     9      180.000000        0.135616         4
         7         1         2        10     9        0.000000       -0.222704         1
         7         1         2        10     9      180.000000       12.927154         2
         7         1         2        10     9        0.000000       -0.418035         3
         7         1         2        10     9      180.000000        0.198862         4
         7         1         6        14     9        0.000000       -0.222704         1
         7         1         6        14     9      180.000000       12.927154         2
         7         1         6        14     9        0.000000       -0.418035         3
         7         1         6        14     9      180.000000        0.198862         4
         7         8         9        18     9        0.000000       -0.057117         1
         7         8         9        18     9      180.000000        0.028087         2
         7         8         9        18     9        0.000000        0.483760         3
         7         8         9        18     9      180.000000        0.020552         4
         7         8         9        19     9        0.000000       -0.057117         1
         7         8         9        19     9      180.000000        0.028086         2
         7         8         9        19     9        0.000000        0.483760         3
         7         8         9        19     9      180.000000        0.020552         4
         7         8         9        20     9        0.000000       -0.057117         1
         7         8         9        20     9      180.000000        0.028086         2
         7         8         9        20     9        0.000000        0.483760         3
         7         8         9        20     9      180.000000        0.020552         4
         7         8        21        22     9        0.000000       -0.057117         1
         7         8        21        22     9      180.000000        0.028087         2
         7         8        21        22     9        0.000000        0.483759         3
         7         8        21        22     9      180.000000        0.020551         4
         7         8        21        23     9        0.000000       -0.057117         1
         7         8        21        23     9      180.000000        0.028087         2
         7         8        21        23     9        0.000000        0.483759         3
         7         8        21        23     9      180.000000        0.020551         4
         7         8        21        24     9        0.000000       -0.057117         1
         7         8        21        24     9      180.000000        0.028087         2
         7         8        21        24     9        0.000000        0.483759         3
         7         8        21        24     9      180.000000        0.020551         4
         9         8         7        15     9        0.000000       -0.183553         1
         9         8         7        15     9      180.000000        0.064093         2
         9         8         7        15     9        0.000000        0.648344         3
         9         8         7        15     9      180.000000        0.057317         4
         9         8         7        16     9        0.000000       -0.183552         1
         9         8         7        16     9      180.000000        0.064094         2
         9         8         7        16     9        0.000000        0.648344         3
         9         8         7        16     9      180.000000        0.057317         4
         9         8        21        22     9        0.000000       -0.075550         1
         9         8        21        22     9      180.000000        0.013516         2
         9         8        21        22     9        0.000000        0.547952         3
         9         8        21        22     9      180.000000        0.038607         4
         9         8        21        23     9        0.000000       -0.075550         1
         9         8        21        23     9      180.000000        0.013516         2
         9         8        21        23     9        0.000000        0.547952         3
         9         8        21        23     9      180.000000        0.038607         4
         9         8        21        24     9        0.000000       -0.075550         1
         9         8        21        24     9      180.000000        0.013516         2
         9         8        21        24     9        0.000000        0.547952         3
         9         8        21        24     9      180.000000        0.038607         4
        10         2         3        11     9        0.000000       -0.132096         1
        10         2         3        11     9      180.000000       11.729516         2
        10         2         3        11     9        0.000000       -0.666894         3
        10         2         3        11     9      180.000000        0.290457         4
        11         3         4        12     9        0.000000       -0.088340         1
        11         3         4        12     9      180.000000       11.528994         2
        11         3         4        12     9        0.000000       -0.594134         3
        11         3         4        12     9      180.000000        0.264318         4
        12         4         5        13     9        0.000000       -0.088339         1
        12         4         5        13     9      180.000000       11.528995         2
        12         4         5        13     9        0.000000       -0.594134         3
        12         4         5        13     9      180.000000        0.264318         4
        13         5         6        14     9        0.000000       -0.132096         1
        13         5         6        14     9      180.000000       11.729515         2
        13         5         6        14     9        0.000000       -0.666894         3
        13         5         6        14     9      180.000000        0.290458         4
        15         7         8        17     9        0.000000        0.370960         1
        15         7         8        17     9      180.000000       -0.024640         2
        15         7         8        17     9        0.000000        0.626581         3
        15         7         8        17     9      180.000000       -0.093982         4
        15         7         8        21     9        0.000000       -0.183553         1
        15         7         8        21     9      180.000000        0.064093         2
        15         7         8        21     9        0.000000        0.648344         3
        15         7         8        21     9      180.000000        0.057317         4
        16         7         8        17     9        0.000000        0.370960         1
        16         7         8        17     9      180.000000       -0.024640         2
        16         7         8        17     9        0.000000        0.626581         3
        16         7         8        17     9      180.000000       -0.093982         4
        16         7         8        21     9        0.000000       -0.183553         1
        16         7         8        21     9      180.000000        0.064093         2
        16         7         8        21     9        0.000000        0.648344         3
        16         7         8        21     9      180.000000        0.057317         4
        17         8         9        18     9        0.000000        0.074333         1
        17         8         9        18     9      180.000000        0.022793         2
        17         8         9        18     9        0.000000        0.577970         3
        17         8         9        18     9      180.000000       -0.028914         4
        17         8         9        19     9        0.000000        0.074334         1
        17         8         9        19     9      180.000000        0.022795         2
        17         8         9        19     9        0.000000        0.577970         3
        17         8         9        19     9      180.000000       -0.028915         4
        17         8         9        20     9        0.000000        0.074334         1
        17         8         9        20     9      180.000000        0.022795         2
        17         8         9        20     9        0.000000        0.577970         3
        17         8         9        20     9      180.000000       -0.028915         4
        17         8        21        22     9        0.000000        0.074335         1
        17         8        21        22     9      180.000000        0.022795         2
        17         8        21        22     9        0.000000        0.577970         3
        17         8        21        22     9      180.000000       -0.028915         4
        17         8        21        23     9        0.000000        0.074335         1
        17         8        21        23     9      180.000000        0.022795         2
        17         8        21        23     9        0.000000        0.577970         3
        17         8        21        23     9      180.000000       -0.028915         4
        17         8        21        24     9        0.000000        0.074335         1
        17         8        21        24     9      180.000000        0.022795         2
        17         8        21        24     9        0.000000        0.577970         3
        17         8        21        24     9      180.000000       -0.028915         4
        18         9         8        21     9        0.000000       -0.075550         1
        18         9         8        21     9      180.000000        0.013517         2
        18         9         8        21     9        0.000000        0.547952         3
        18         9         8        21     9      180.000000        0.038607         4
        19         9         8        21     9        0.000000       -0.075550         1
        19         9         8        21     9      180.000000        0.013516         2
        19         9         8        21     9        0.000000        0.547952         3
        19         9         8        21     9      180.000000        0.038607         4
        20         9         8        21     9        0.000000       -0.075550         1
        20         9         8        21     9      180.000000        0.013516         2
        20         9         8        21     9        0.000000        0.547952         3
        20         9         8        21     9      180.000000        0.038607         4

[ dihedrals ] ; impropers
;       ai        aj        ak        al funct           phase               k        pn
         2         1         3        10     4      180.000000        0.041040         2
         2         3        10         1     4      180.000000        0.041040         2
         2        10         1         3     4      180.000000        0.041040         2
         3         2         4        11     4      180.000000        0.987208         2
         3         4        11         2     4      180.000000        0.987208         2
         3        11         2         4     4      180.000000        0.987208         2
         5         4         6        13     4      180.000000        0.987208         2
         5         6        13         4     4      180.000000        0.987208         2
         5        13         4         6     4      180.000000        0.987208         2
         6         1         5        14     4      180.000000        0.041040         2
         6         5        14         1     4      180.000000        0.041040         2
         6        14         1         5     4      180.000000        0.041040         2

[ pairs ]
;       ai        aj funct
         1         4     1
         1         9     1
         1        11     1
         1        13     1
         1        17     1
         1        21     1
         2         5     1
         2         8     1
         2        12     1
         2        14     1
         2        15     1
         2        16     1
         3         6     1
         3         7     1
         3        13     1
         4        10     1
         4        14     1
         5         7     1
         5        11     1
         6         8     1
         6        10     1
         6        12     1
         6        15     1
         6        16     1
         7        10     1
         7        14     1
         7        18     1
         7        19     1
         7        20     1
         7        22     1
         7        23     1
         7        24     1
         9        15     1
         9        16     1
         9        22     1
         9        23     1
         9        24     1
        10        11     1
        11        12     1
        12        13     1
        13        14     1
        15        17     1
        15        21     1
        16        17     1
        16        21     1
        17        18     1
        17        19     1
        17        20     1
        17        22     1
        17        23     1
        17        24     1
        18        21     1
        19        21     1
        20        21     1
