; ITP file created by ByteFF-ML, 2025-12-06 03:43:22.340294

[ atomtypes ]
;name           bonded.type        at.num        mass        charge   ptype           sigma         epsilon
 c0bf                                   6      0.0000       0.00000       A     3.31447e-01     4.12803e-01
 c1bf                                   6      0.0000       0.00000       A     3.31480e-01     4.13063e-01
 c2bf                                   6      0.0000       0.00000       A     3.31505e-01     4.12700e-01
 c3bf                                   6      0.0000       0.00000       A     3.31505e-01     4.13203e-01
 c4bf                                   6      0.0000       0.00000       A     3.31516e-01     4.13144e-01
 c5bf                                   6      0.0000       0.00000       A     3.31493e-01     4.12437e-01
 c6bf                                   6      0.0000       0.00000       A     3.39816e-01     4.51086e-01
 c7bf                                   6      0.0000       0.00000       A     3.39759e-01     4.50120e-01
 h8bf                                   1      0.0000       0.00000       A     2.62447e-01     6.76893e-02
 h9bf                                   1      0.0000       0.00000       A     2.62498e-01     6.72903e-02
 h10bf                                  1      0.0000       0.00000       A     2.62480e-01     6.72983e-02
 h11bf                                  1      0.0000       0.00000       A     2.62515e-01     6.74690e-02
 h12bf                                  1      0.0000       0.00000       A     2.60042e-01     8.71486e-02
 h13bf                                  1      0.0000       0.00000       A     2.60042e-01     8.71486e-02
 h14bf                                  1      0.0000       0.00000       A     2.59988e-01     8.72651e-02
 h15bf                                  1      0.0000       0.00000       A     2.59988e-01     8.72651e-02
 h16bf                                  1      0.0000       0.00000       A     2.59988e-01     8.72651e-02
 c17bf                                  6      0.0000       0.00000       A     3.39809e-01     4.50666e-01
 h18bf                                  1      0.0000       0.00000       A     2.59993e-01     8.72348e-02
 h19bf                                  1      0.0000       0.00000       A     2.59993e-01     8.72348e-02
 h20bf                                  1      0.0000       0.00000       A     2.59993e-01     8.72348e-02

[ moleculetype ]
;name             nrexcl
 meta_methyl_ethyl_benzene       3

[ atoms ]
;       nr            type      resi   res      atom      cgnr      charge          mass ; qtot
         1            c0bf         1   UNL        c0         1    -0.08032       12.0110 ; qtot   -0.080
         2            c1bf         1   UNL        c1         2    -0.10845       12.0110 ; qtot   -0.189
         3            c2bf         1   UNL        c2         3    -0.07969       12.0110 ; qtot   -0.268
         4            c3bf         1   UNL        c3         4    -0.11081       12.0110 ; qtot   -0.379
         5            c4bf         1   UNL        c4         5    -0.10977       12.0110 ; qtot   -0.489
         6            c5bf         1   UNL        c5         6    -0.11333       12.0110 ; qtot   -0.602
         7            c6bf         1   UNL        c6         7    -0.03156       12.0110 ; qtot   -0.634
         8            c7bf         1   UNL        c7         8    -0.09104       12.0110 ; qtot   -0.725
         9            h8bf         1   UNL        h8         9     0.11037        1.0080 ; qtot   -0.615
        10            h9bf         1   UNL        h9        10     0.11206        1.0080 ; qtot   -0.503
        11           h10bf         1   UNL       h10        11     0.11328        1.0080 ; qtot   -0.389
        12           h11bf         1   UNL       h11        12     0.11253        1.0080 ; qtot   -0.277
        13           h12bf         1   UNL       h12        13     0.04311        1.0080 ; qtot   -0.234
        14           h13bf         1   UNL       h13        14     0.04311        1.0080 ; qtot   -0.191
        15           h14bf         1   UNL       h14        15     0.03635        1.0080 ; qtot   -0.154
        16           h15bf         1   UNL       h15        16     0.03635        1.0080 ; qtot   -0.118
        17           h16bf         1   UNL       h16        17     0.03635        1.0080 ; qtot   -0.081
        18           c17bf         1   UNL       c17        18    -0.04741       12.0110 ; qtot   -0.129
        19           h18bf         1   UNL       h18        19     0.04296        1.0080 ; qtot   -0.086
        20           h19bf         1   UNL       h19        20     0.04296        1.0080 ; qtot   -0.043
        21           h20bf         1   UNL       h20        21     0.04295        1.0080 ; qtot   -0.000

[ bonds ]
;       ai        aj funct               r               k
         1         2     1        0.140229   290248.503027
         1         6     1        0.140261   291083.234521
         1         7     1        0.151374   198259.148999
         2         3     1        0.140226   294337.709277
         2         9     1        0.108839   310825.514111
         3         4     1        0.140293   290794.614111
         3        18     1        0.151171   205363.585596
         4         5     1        0.139825   309024.790381
         4        10     1        0.108737   315158.906201
         5         6     1        0.139792   312818.634424
         5        11     1        0.108671   318073.073438
         6        12     1        0.108722   315127.418945
         7         8     1        0.153885   184347.795898
         7        13     1        0.109561   293415.104590
         7        14     1        0.109561   293415.104590
         8        15     1        0.109428   299407.106396
         8        16     1        0.109428   299407.131934
         8        17     1        0.109428   299407.106396
        18        19     1        0.109461   298772.790137
        18        20     1        0.109461   298772.790137
        18        21     1        0.109461   298772.790137

[ angles ]
;       ai        aj        ak funct           theta             cth
         1         2         3     1      121.931480      696.110127
         1         2         9     1      119.033875      410.612586
         1         6         5     1      120.430649      702.555374
         1         6        12     1      119.630417      409.580280
         1         7         8     1      112.609665      616.386272
         1         7        13     1      109.443161      500.392827
         1         7        14     1      109.443161      500.392827
         2         1         6     1      118.408363      673.360457
         2         1         7     1      120.787636      462.011254
         2         3         4     1      118.358200      701.083351
         2         3        18     1      120.773361      445.603055
         3         2         9     1      119.066307      412.393927
         3         4         5     1      120.519394      685.090737
         3         4        10     1      119.665756      408.294774
         3        18        19     1      111.261246      480.733083
         3        18        20     1      111.261246      480.733083
         3        18        21     1      111.261246      480.733083
         4         3        18     1      120.878090      471.325053
         4         5         6     1      120.290550      692.717458
         4         5        11     1      119.844482      431.476341
         5         4        10     1      119.861374      435.377677
         5         6        12     1      119.933884      436.786623
         6         1         7     1      120.936203      506.312201
         6         5        11     1      119.911537      433.679363
         7         8        15     1      110.969215      500.509723
         7         8        16     1      110.969215      500.509723
         7         8        17     1      110.969215      500.509723
         8         7        13     1      109.249649      492.601998
         8         7        14     1      109.249649      492.601998
        13         7        14     1      106.373642      362.543064
        15         8        16     1      107.961159      364.643459
        15         8        17     1      107.961159      364.643491
        16         8        17     1      107.961159      364.643491
        19        18        20     1      107.629349      360.727407
        19        18        21     1      107.629349      360.727407
        20        18        21     1      107.629349      360.727407

[ dihedrals ] ; propers for gromacs 4.5 or higher, use funct 9
;       ai        aj        ak        al funct           phase               k        pn
         1         2         3         4     9        0.000000       -0.010757         1
         1         2         3         4     9      180.000000       18.749346         2
         1         2         3         4     9        0.000000       -1.382469         3
         1         2         3         4     9      180.000000       -0.423795         4
         1         2         3        18     9        0.000000        0.123253         1
         1         2         3        18     9      180.000000       15.495275         2
         1         2         3        18     9        0.000000       -0.087787         3
         1         2         3        18     9      180.000000       -0.133144         4
         1         6         5         4     9        0.000000        0.060468         1
         1         6         5         4     9      180.000000       18.550503         2
         1         6         5         4     9        0.000000       -1.603600         3
         1         6         5         4     9      180.000000       -0.375958         4
         1         6         5        11     9        0.000000        0.026681         1
         1         6         5        11     9      180.000000       14.324180         2
         1         6         5        11     9        0.000000       -0.738284         3
         1         6         5        11     9      180.000000        0.130968         4
         1         7         8        15     9        0.000000       -0.093889         1
         1         7         8        15     9      180.000000        0.045710         2
         1         7         8        15     9        0.000000        0.706917         3
         1         7         8        15     9      180.000000        0.020529         4
         1         7         8        16     9        0.000000       -0.093889         1
         1         7         8        16     9      180.000000        0.045710         2
         1         7         8        16     9        0.000000        0.706917         3
         1         7         8        16     9      180.000000        0.020529         4
         1         7         8        17     9        0.000000       -0.093889         1
         1         7         8        17     9      180.000000        0.045710         2
         1         7         8        17     9        0.000000        0.706917         3
         1         7         8        17     9      180.000000        0.020529         4
         2         1         6         5     9        0.000000       -0.102432         1
         2         1         6         5     9      180.000000       19.024674         2
         2         1         6         5     9        0.000000       -1.452593         3
         2         1         6         5     9      180.000000       -0.412001         4
         2         1         6        12     9        0.000000       -0.048687         1
         2         1         6        12     9      180.000000       14.588119         2
         2         1         6        12     9        0.000000       -0.591821         3
         2         1         6        12     9      180.000000       -0.005383         4
         2         1         7         8     9        0.000000       -0.069572         1
         2         1         7         8     9      180.000000        0.732702         2
         2         1         7         8     9        0.000000       -0.017904         3
         2         1         7         8     9      180.000000        0.222351         4
         2         1         7        13     9        0.000000        0.029762         1
         2         1         7        13     9      180.000000       -0.028889         2
         2         1         7        13     9        0.000000       -0.003425         3
         2         1         7        13     9      180.000000       -0.014407         4
         2         1         7        14     9        0.000000        0.029762         1
         2         1         7        14     9      180.000000       -0.028889         2
         2         1         7        14     9        0.000000       -0.003425         3
         2         1         7        14     9      180.000000       -0.014407         4
         2         3         4         5     9        0.000000       -0.031934         1
         2         3         4         5     9      180.000000       18.827278         2
         2         3         4         5     9        0.000000       -1.377648         3
         2         3         4         5     9      180.000000       -0.431563         4
         2         3         4        10     9        0.000000       -0.061595         1
         2         3         4        10     9      180.000000       14.615564         2
         2         3         4        10     9        0.000000       -0.541900         3
         2         3         4        10     9      180.000000        0.074446         4
         2         3        18        19     9        0.000000       -0.027163         1
         2         3        18        19     9      180.000000        0.017165         2
         2         3        18        19     9        0.000000        0.016643         3
         2         3        18        19     9      180.000000        0.006335         4
         2         3        18        20     9        0.000000       -0.027163         1
         2         3        18        20     9      180.000000        0.017165         2
         2         3        18        20     9        0.000000        0.016643         3
         2         3        18        20     9      180.000000        0.006335         4
         2         3        18        21     9        0.000000       -0.027163         1
         2         3        18        21     9      180.000000        0.017165         2
         2         3        18        21     9        0.000000        0.016643         3
         2         3        18        21     9      180.000000        0.006335         4
         3         2         1         6     9        0.000000       -0.079808         1
         3         2         1         6     9      180.000000       18.770156         2
         3         2         1         6     9        0.000000       -1.443802         3
         3         2         1         6     9      180.000000       -0.413586         4
         3         2         1         7     9        0.000000        0.046632         1
         3         2         1         7     9      180.000000       15.242556         2
         3         2         1         7     9        0.000000       -0.151615         3
         3         2         1         7     9      180.000000       -0.145121         4
         3         4         5         6     9        0.000000        0.042451         1
         3         4         5         6     9      180.000000       18.246606         2
         3         4         5         6     9        0.000000       -1.612905         3
         3         4         5         6     9      180.000000       -0.393692         4
         3         4         5        11     9        0.000000        0.053388         1
         3         4         5        11     9      180.000000       14.089711         2
         3         4         5        11     9        0.000000       -0.769894         3
         3         4         5        11     9      180.000000        0.164810         4
         4         3         2         9     9        0.000000       -0.033973         1
         4         3         2         9     9      180.000000       14.571751         2
         4         3         2         9     9        0.000000       -0.489920         3
         4         3         2         9     9      180.000000        0.098023         4
         4         3        18        19     9        0.000000       -0.018102         1
         4         3        18        19     9      180.000000        0.012614         2
         4         3        18        19     9        0.000000       -0.016874         3
         4         3        18        19     9      180.000000        0.002386         4
         4         3        18        20     9        0.000000       -0.018102         1
         4         3        18        20     9      180.000000        0.012614         2
         4         3        18        20     9        0.000000       -0.016874         3
         4         3        18        20     9      180.000000        0.002386         4
         4         3        18        21     9        0.000000       -0.018102         1
         4         3        18        21     9      180.000000        0.012614         2
         4         3        18        21     9        0.000000       -0.016874         3
         4         3        18        21     9      180.000000        0.002386         4
         4         5         6        12     9        0.000000        0.081476         1
         4         5         6        12     9      180.000000       14.553469         2
         4         5         6        12     9        0.000000       -0.731706         3
         4         5         6        12     9      180.000000        0.146796         4
         5         4         3        18     9        0.000000        0.086404         1
         5         4         3        18     9      180.000000       15.692527         2
         5         4         3        18     9        0.000000       -0.157404         3
         5         4         3        18     9      180.000000       -0.106917         4
         5         6         1         7     9        0.000000        0.029632         1
         5         6         1         7     9      180.000000       15.613588         2
         5         6         1         7     9        0.000000       -0.181115         3
         5         6         1         7     9      180.000000       -0.141588         4
         6         1         2         9     9        0.000000       -0.083373         1
         6         1         2         9     9      180.000000       14.592072         2
         6         1         2         9     9        0.000000       -0.563010         3
         6         1         2         9     9      180.000000        0.034881         4
         6         1         7         8     9        0.000000       -0.068847         1
         6         1         7         8     9      180.000000        0.684120         2
         6         1         7         8     9        0.000000       -0.017953         3
         6         1         7         8     9      180.000000        0.223894         4
         6         1         7        13     9        0.000000        0.014144         1
         6         1         7        13     9      180.000000       -0.045058         2
         6         1         7        13     9        0.000000       -0.020850         3
         6         1         7        13     9      180.000000       -0.009338         4
         6         1         7        14     9        0.000000        0.014144         1
         6         1         7        14     9      180.000000       -0.045058         2
         6         1         7        14     9        0.000000       -0.020850         3
         6         1         7        14     9      180.000000       -0.009338         4
         6         5         4        10     9        0.000000        0.029052         1
         6         5         4        10     9      180.000000       14.321450         2
         6         5         4        10     9        0.000000       -0.740169         3
         6         5         4        10     9      180.000000        0.149882         4
         7         1         2         9     9        0.000000       -0.297099         1
         7         1         2         9     9      180.000000       12.802178         2
         7         1         2         9     9        0.000000       -0.422611         3
         7         1         2         9     9      180.000000        0.251902         4
         7         1         6        12     9        0.000000       -0.221580         1
         7         1         6        12     9      180.000000       12.779053         2
         7         1         6        12     9        0.000000       -0.396335         3
         7         1         6        12     9      180.000000        0.232052         4
         9         2         3        18     9        0.000000       -0.262256         1
         9         2         3        18     9      180.000000       12.829258         2
         9         2         3        18     9        0.000000       -0.422682         3
         9         2         3        18     9      180.000000        0.312068         4
        10         4         3        18     9        0.000000       -0.211991         1
        10         4         3        18     9      180.000000       12.871898         2
        10         4         3        18     9        0.000000       -0.425573         3
        10         4         3        18     9      180.000000        0.266606         4
        10         4         5        11     9        0.000000       -0.159963         1
        10         4         5        11     9      180.000000       11.204914         2
        10         4         5        11     9        0.000000       -0.563745         3
        10         4         5        11     9      180.000000        0.270249         4
        11         5         6        12     9        0.000000       -0.110637         1
        11         5         6        12     9      180.000000       11.633636         2
        11         5         6        12     9        0.000000       -0.669767         3
        11         5         6        12     9      180.000000        0.313514         4
        13         7         8        15     9        0.000000       -0.005054         1
        13         7         8        15     9      180.000000        0.015644         2
        13         7         8        15     9        0.000000        0.550794         3
        13         7         8        15     9      180.000000       -0.011609         4
        13         7         8        16     9        0.000000       -0.005053         1
        13         7         8        16     9      180.000000        0.015645         2
        13         7         8        16     9        0.000000        0.550794         3
        13         7         8        16     9      180.000000       -0.011609         4
        13         7         8        17     9        0.000000       -0.005053         1
        13         7         8        17     9      180.000000        0.015646         2
        13         7         8        17     9        0.000000        0.550794         3
        13         7         8        17     9      180.000000       -0.011609         4
        14         7         8        15     9        0.000000       -0.005053         1
        14         7         8        15     9      180.000000        0.015645         2
        14         7         8        15     9        0.000000        0.550794         3
        14         7         8        15     9      180.000000       -0.011609         4
        14         7         8        16     9        0.000000       -0.005053         1
        14         7         8        16     9      180.000000        0.015645         2
        14         7         8        16     9        0.000000        0.550794         3
        14         7         8        16     9      180.000000       -0.011609         4
        14         7         8        17     9        0.000000       -0.005053         1
        14         7         8        17     9      180.000000        0.015646         2
        14         7         8        17     9        0.000000        0.550794         3
        14         7         8        17     9      180.000000       -0.011609         4

[ dihedrals ] ; impropers
;       ai        aj        ak        al funct           phase               k        pn
         4         3         5        10     4      180.000000        0.147967         2
         4         5        10         3     4      180.000000        0.147967         2
         4        10         3         5     4      180.000000        0.147967         2

[ pairs ]
;       ai        aj funct
         1         4     1
         1        11     1
         1        15     1
         1        16     1
         1        17     1
         1        18     1
         2         5     1
         2         8     1
         2        10     1
         2        12     1
         2        13     1
         2        14     1
         2        19     1
         2        20     1
         2        21     1
         3         6     1
         3         7     1
         3        11     1
         4         9     1
         4        12     1
         4        19     1
         4        20     1
         4        21     1
         5         7     1
         5        18     1
         6         8     1
         6         9     1
         6        10     1
         6        13     1
         6        14     1
         7         9     1
         7        12     1
         9        18     1
        10        11     1
        10        18     1
        11        12     1
        13        15     1
        13        16     1
        13        17     1
        14        15     1
        14        16     1
        14        17     1
