; ITP file created by ByteFF-ML, 2025-12-06 03:44:52.842721

[ atomtypes ]
;name           bonded.type        at.num        mass        charge   ptype           sigma         epsilon
 c0bf                                   6      0.0000       0.00000       A     3.31486e-01     4.12560e-01
 c1bf                                   6      0.0000       0.00000       A     3.31498e-01     4.13273e-01
 c2bf                                   6      0.0000       0.00000       A     3.31501e-01     4.12839e-01
 c3bf                                   6      0.0000       0.00000       A     3.31497e-01     4.12822e-01
 c4bf                                   6      0.0000       0.00000       A     3.31501e-01     4.12839e-01
 c5bf                                   6      0.0000       0.00000       A     3.31498e-01     4.13273e-01
 h6bf                                   1      0.0000       0.00000       A     2.62498e-01     6.72903e-02
 h7bf                                   1      0.0000       0.00000       A     2.62458e-01     6.72983e-02
 h8bf                                   1      0.0000       0.00000       A     2.62457e-01     6.73477e-02
 h9bf                                   1      0.0000       0.00000       A     2.62458e-01     6.72983e-02
 h10bf                                  1      0.0000       0.00000       A     2.62498e-01     6.72903e-02
 c11bf                                  6      0.0000       0.00000       A     3.39812e-01     4.50524e-01
 h12bf                                  1      0.0000       0.00000       A     2.59993e-01     8.72348e-02
 h13bf                                  1      0.0000       0.00000       A     2.59993e-01     8.72348e-02
 h14bf                                  1      0.0000       0.00000       A     2.59993e-01     8.72348e-02

[ moleculetype ]
;name             nrexcl
 methyl_benzene        3

[ atoms ]
;       nr            type      resi   res      atom      cgnr      charge          mass ; qtot
         1            c0bf         1   UNL        c0         1    -0.08022       12.0110 ; qtot   -0.080
         2            c1bf         1   UNL        c1         2    -0.11253       12.0110 ; qtot   -0.193
         3            c2bf         1   UNL        c2         3    -0.11075       12.0110 ; qtot   -0.303
         4            c3bf         1   UNL        c3         4    -0.11616       12.0110 ; qtot   -0.420
         5            c4bf         1   UNL        c4         5    -0.11075       12.0110 ; qtot   -0.530
         6            c5bf         1   UNL        c5         6    -0.11253       12.0110 ; qtot   -0.643
         7            h6bf         1   UNL        h6         7     0.11174        1.0080 ; qtot   -0.531
         8            h7bf         1   UNL        h7         8     0.11246        1.0080 ; qtot   -0.419
         9            h8bf         1   UNL        h8         9     0.11320        1.0080 ; qtot   -0.306
        10            h9bf         1   UNL        h9        10     0.11246        1.0080 ; qtot   -0.193
        11           h10bf         1   UNL       h10        11     0.11174        1.0080 ; qtot   -0.081
        12           c11bf         1   UNL       c11        12    -0.04866       12.0110 ; qtot   -0.130
        13           h12bf         1   UNL       h12        13     0.04333        1.0080 ; qtot   -0.087
        14           h13bf         1   UNL       h13        14     0.04333        1.0080 ; qtot   -0.043
        15           h14bf         1   UNL       h14        15     0.04334        1.0080 ; qtot    0.000

[ bonds ]
;       ai        aj funct               r               k
         1         2     1        0.140391   289080.384570
         1         6     1        0.140391   289080.384570
         1        12     1        0.151129   205701.492627
         2         3     1        0.139891   309358.637012
         2         7     1        0.108748   314902.309326
         3         4     1        0.139923   307826.231689
         3         8     1        0.108661   318671.229150
         4         5     1        0.139923   307826.231689
         4         9     1        0.108629   319751.295654
         5         6     1        0.139891   309358.637012
         5        10     1        0.108661   318671.229150
         6        11     1        0.108748   314902.309326
        12        13     1        0.109458   298881.910205
        12        14     1        0.109458   298881.910205
        12        15     1        0.109458   298881.910205

[ angles ]
;       ai        aj        ak funct           theta             cth
         1         2         3     1      121.004677      689.908376
         1         2         7     1      119.447922      411.610449
         1         6         5     1      121.004677      689.908376
         1         6        11     1      119.447922      411.610449
         1        12        13     1      111.253685      482.623723
         1        12        14     1      111.253685      482.623723
         1        12        15     1      111.253685      482.623723
         2         1         6     1      118.245705      689.870326
         2         1        12     1      120.869095      486.650734
         2         3         4     1      120.171524      689.858323
         2         3         8     1      119.796059      434.304193
         3         2         7     1      119.639000      438.213062
         3         4         5     1      119.440895      687.118383
         3         4         9     1      120.293701      435.241660
         4         3         8     1      120.074852      435.161537
         4         5         6     1      120.171524      689.858323
         4         5        10     1      120.074852      435.161537
         5         4         9     1      120.293701      435.241660
         5         6        11     1      119.639000      438.213062
         6         1        12     1      120.869095      486.650734
         6         5        10     1      119.796059      434.304193
        13        12        14     1      107.633995      359.456170
        13        12        15     1      107.633995      359.456170
        14        12        15     1      107.633995      359.456170

[ dihedrals ] ; propers for gromacs 4.5 or higher, use funct 9
;       ai        aj        ak        al funct           phase               k        pn
         1         2         3         4     9        0.000000       -0.002815         1
         1         2         3         4     9      180.000000       18.415747         2
         1         2         3         4     9        0.000000       -1.610026         3
         1         2         3         4     9      180.000000       -0.391727         4
         1         2         3         8     9        0.000000        0.027653         1
         1         2         3         8     9      180.000000       14.219172         2
         1         2         3         8     9        0.000000       -0.743183         3
         1         2         3         8     9      180.000000        0.163135         4
         1         6         5         4     9        0.000000       -0.002815         1
         1         6         5         4     9      180.000000       18.415747         2
         1         6         5         4     9        0.000000       -1.610026         3
         1         6         5         4     9      180.000000       -0.391727         4
         1         6         5        10     9        0.000000        0.027653         1
         1         6         5        10     9      180.000000       14.219172         2
         1         6         5        10     9        0.000000       -0.743183         3
         1         6         5        10     9      180.000000        0.163135         4
         2         1         6         5     9        0.000000       -0.090840         1
         2         1         6         5     9      180.000000       18.806355         2
         2         1         6         5     9        0.000000       -1.371029         3
         2         1         6         5     9      180.000000       -0.432353         4
         2         1         6        11     9        0.000000       -0.063015         1
         2         1         6        11     9      180.000000       14.491825         2
         2         1         6        11     9        0.000000       -0.545621         3
         2         1         6        11     9      180.000000        0.106634         4
         2         1        12        13     9        0.000000       -0.016921         1
         2         1        12        13     9      180.000000        0.014831         2
         2         1        12        13     9        0.000000       -0.002787         3
         2         1        12        13     9      180.000000        0.004506         4
         2         1        12        14     9        0.000000       -0.016921         1
         2         1        12        14     9      180.000000        0.014831         2
         2         1        12        14     9        0.000000       -0.002787         3
         2         1        12        14     9      180.000000        0.004506         4
         2         1        12        15     9        0.000000       -0.016921         1
         2         1        12        15     9      180.000000        0.014832         2
         2         1        12        15     9        0.000000       -0.002787         3
         2         1        12        15     9      180.000000        0.004506         4
         2         3         4         5     9        0.000000       -0.029464         1
         2         3         4         5     9      180.000000       18.857611         2
         2         3         4         5     9        0.000000       -1.679408         3
         2         3         4         5     9      180.000000       -0.415842         4
         2         3         4         9     9        0.000000        0.003732         1
         2         3         4         9     9      180.000000       14.427926         2
         2         3         4         9     9        0.000000       -0.775122         3
         2         3         4         9     9      180.000000        0.144449         4
         3         2         1         6     9        0.000000       -0.090839         1
         3         2         1         6     9      180.000000       18.806355         2
         3         2         1         6     9        0.000000       -1.371029         3
         3         2         1         6     9      180.000000       -0.432353         4
         3         2         1        12     9        0.000000        0.092610         1
         3         2         1        12     9      180.000000       15.813076         2
         3         2         1        12     9        0.000000       -0.120313         3
         3         2         1        12     9      180.000000       -0.123624         4
         3         4         5         6     9        0.000000       -0.029464         1
         3         4         5         6     9      180.000000       18.857613         2
         3         4         5         6     9        0.000000       -1.679408         3
         3         4         5         6     9      180.000000       -0.415842         4
         3         4         5        10     9        0.000000       -0.004973         1
         3         4         5        10     9      180.000000       14.486082         2
         3         4         5        10     9        0.000000       -0.806660         3
         3         4         5        10     9      180.000000        0.154017         4
         4         3         2         7     9        0.000000       -0.011477         1
         4         3         2         7     9      180.000000       14.389680         2
         4         3         2         7     9        0.000000       -0.732655         3
         4         3         2         7     9      180.000000        0.179210         4
         4         5         6        11     9        0.000000       -0.011478         1
         4         5         6        11     9      180.000000       14.389682         2
         4         5         6        11     9        0.000000       -0.732656         3
         4         5         6        11     9      180.000000        0.179210         4
         5         4         3         8     9        0.000000       -0.004972         1
         5         4         3         8     9      180.000000       14.486082         2
         5         4         3         8     9        0.000000       -0.806660         3
         5         4         3         8     9      180.000000        0.154016         4
         5         6         1        12     9        0.000000        0.092611         1
         5         6         1        12     9      180.000000       15.813078         2
         5         6         1        12     9        0.000000       -0.120313         3
         5         6         1        12     9      180.000000       -0.123624         4
         6         1         2         7     9        0.000000       -0.063015         1
         6         1         2         7     9      180.000000       14.491825         2
         6         1         2         7     9        0.000000       -0.545621         3
         6         1         2         7     9      180.000000        0.106634         4
         6         1        12        13     9        0.000000       -0.016921         1
         6         1        12        13     9      180.000000        0.014831         2
         6         1        12        13     9        0.000000       -0.002788         3
         6         1        12        13     9      180.000000        0.004506         4
         6         1        12        14     9        0.000000       -0.016921         1
         6         1        12        14     9      180.000000        0.014831         2
         6         1        12        14     9        0.000000       -0.002788         3
         6         1        12        14     9      180.000000        0.004506         4
         6         1        12        15     9        0.000000       -0.016921         1
         6         1        12        15     9      180.000000        0.014831         2
         6         1        12        15     9        0.000000       -0.002788         3
         6         1        12        15     9      180.000000        0.004506         4
         6         5         4         9     9        0.000000        0.003733         1
         6         5         4         9     9      180.000000       14.427926         2
         6         5         4         9     9        0.000000       -0.775122         3
         6         5         4         9     9      180.000000        0.144449         4
         7         2         1        12     9        0.000000       -0.215280         1
         7         2         1        12     9      180.000000       12.916718         2
         7         2         1        12     9        0.000000       -0.404447         3
         7         2         1        12     9      180.000000        0.267874         4
         7         2         3         8     9        0.000000       -0.158876         1
         7         2         3         8     9      180.000000       11.296330         2
         7         2         3         8     9        0.000000       -0.580414         3
         7         2         3         8     9      180.000000        0.290315         4
         8         3         4         9     9        0.000000       -0.096771         1
         8         3         4         9     9      180.000000       11.465060         2
         8         3         4         9     9        0.000000       -0.576044         3
         8         3         4         9     9      180.000000        0.264177         4
         9         4         5        10     9        0.000000       -0.096772         1
         9         4         5        10     9      180.000000       11.465059         2
         9         4         5        10     9        0.000000       -0.576043         3
         9         4         5        10     9      180.000000        0.264177         4
        10         5         6        11     9        0.000000       -0.158876         1
        10         5         6        11     9      180.000000       11.296332         2
        10         5         6        11     9        0.000000       -0.580414         3
        10         5         6        11     9      180.000000        0.290315         4
        11         6         1        12     9        0.000000       -0.215279         1
        11         6         1        12     9      180.000000       12.916720         2
        11         6         1        12     9        0.000000       -0.404447         3
        11         6         1        12     9      180.000000        0.267874         4

[ pairs ]
;       ai        aj funct
         1         4     1
         1         8     1
         1        10     1
         2         5     1
         2         9     1
         2        11     1
         2        13     1
         2        14     1
         2        15     1
         3         6     1
         3        10     1
         3        12     1
         4         7     1
         4        11     1
         5         8     1
         5        12     1
         6         7     1
         6         9     1
         6        13     1
         6        14     1
         6        15     1
         7         8     1
         7        12     1
         8         9     1
         9        10     1
        10        11     1
        11        12     1
