; ITP file created by ByteFF-ML, 2025-12-06 03:46:25.036152

[ atomtypes ]
;name           bonded.type        at.num        mass        charge   ptype           sigma         epsilon
 c0bf                                   6      0.0000       0.00000       A     3.31481e-01     4.12139e-01
 c1bf                                   6      0.0000       0.00000       A     3.31540e-01     4.12830e-01
 c2bf                                   6      0.0000       0.00000       A     3.31457e-01     4.13109e-01
 c3bf                                   6      0.0000       0.00000       A     3.31506e-01     4.12823e-01
 c4bf                                   6      0.0000       0.00000       A     3.31501e-01     4.13093e-01
 c5bf                                   6      0.0000       0.00000       A     3.31488e-01     4.12475e-01
 c6bf                                   6      0.0000       0.00000       A     3.39823e-01     4.51072e-01
 c7bf                                   6      0.0000       0.00000       A     3.39760e-01     4.50385e-01
 h8bf                                   1      0.0000       0.00000       A     2.62474e-01     6.73430e-02
 h9bf                                   1      0.0000       0.00000       A     2.62458e-01     6.72983e-02
 h10bf                                  1      0.0000       0.00000       A     2.62458e-01     6.72983e-02
 h11bf                                  1      0.0000       0.00000       A     2.62480e-01     6.74259e-02
 h12bf                                  1      0.0000       0.00000       A     2.59930e-01     8.73976e-02
 h13bf                                  1      0.0000       0.00000       A     2.59930e-01     8.73976e-02
 h14bf                                  1      0.0000       0.00000       A     2.59988e-01     8.72651e-02
 h15bf                                  1      0.0000       0.00000       A     2.59988e-01     8.72651e-02
 h16bf                                  1      0.0000       0.00000       A     2.59988e-01     8.72651e-02
 c17bf                                  6      0.0000       0.00000       A     3.39791e-01     4.50396e-01
 h18bf                                  1      0.0000       0.00000       A     2.59994e-01     8.72380e-02
 h19bf                                  1      0.0000       0.00000       A     2.59994e-01     8.72380e-02
 h20bf                                  1      0.0000       0.00000       A     2.59994e-01     8.72380e-02

[ moleculetype ]
;name             nrexcl
 ortho_methyl_ethyl_benzene       3

[ atoms ]
;       nr            type      resi   res      atom      cgnr      charge          mass ; qtot
         1            c0bf         1   UNL        c0         1    -0.08071       12.0110 ; qtot   -0.081
         2            c1bf         1   UNL        c1         2    -0.07461       12.0110 ; qtot   -0.155
         3            c2bf         1   UNL        c2         3    -0.11376       12.0110 ; qtot   -0.269
         4            c3bf         1   UNL        c3         4    -0.10795       12.0110 ; qtot   -0.377
         5            c4bf         1   UNL        c4         5    -0.11616       12.0110 ; qtot   -0.493
         6            c5bf         1   UNL        c5         6    -0.10863       12.0110 ; qtot   -0.602
         7            c6bf         1   UNL        c6         7    -0.03088       12.0110 ; qtot   -0.633
         8            c7bf         1   UNL        c7         8    -0.08949       12.0110 ; qtot   -0.722
         9            h8bf         1   UNL        h8         9     0.11111        1.0080 ; qtot   -0.611
        10            h9bf         1   UNL        h9        10     0.11281        1.0080 ; qtot   -0.498
        11           h10bf         1   UNL       h10        11     0.11449        1.0080 ; qtot   -0.384
        12           h11bf         1   UNL       h11        12     0.11046        1.0080 ; qtot   -0.273
        13           h12bf         1   UNL       h12        13     0.04311        1.0080 ; qtot   -0.230
        14           h13bf         1   UNL       h13        14     0.04311        1.0080 ; qtot   -0.187
        15           h14bf         1   UNL       h14        15     0.03581        1.0080 ; qtot   -0.151
        16           h15bf         1   UNL       h15        16     0.03581        1.0080 ; qtot   -0.115
        17           h16bf         1   UNL       h16        17     0.03581        1.0080 ; qtot   -0.080
        18           c17bf         1   UNL       c17        18    -0.04832       12.0110 ; qtot   -0.128
        19           h18bf         1   UNL       h18        19     0.04266        1.0080 ; qtot   -0.085
        20           h19bf         1   UNL       h19        20     0.04266        1.0080 ; qtot   -0.043
        21           h20bf         1   UNL       h20        21     0.04267        1.0080 ; qtot    0.000

[ bonds ]
;       ai        aj funct               r               k
         1         2     1        0.141304   261916.893311
         1         6     1        0.140223   291539.531592
         1         7     1        0.151502   194227.005420
         2         3     1        0.140232   294284.924072
         2        18     1        0.151267   201040.012524
         3         4     1        0.139826   309903.088184
         3         9     1        0.108732   314462.713525
         4         5     1        0.139715   311256.018701
         4        10     1        0.108650   318890.107715
         5         6     1        0.139781   313130.595752
         5        11     1        0.108637   319165.908496
         6        12     1        0.108717   314425.837939
         7         8     1        0.153909   184098.515405
         7        13     1        0.109504   294299.505762
         7        14     1        0.109504   294299.505762
         8        15     1        0.109427   299316.934863
         8        16     1        0.109427   299316.909326
         8        17     1        0.109427   299316.934863
        18        19     1        0.109429   299008.140137
        18        20     1        0.109429   299008.140137
        18        21     1        0.109429   299008.140137

[ angles ]
;       ai        aj        ak funct           theta             cth
         1         2         3     1      118.862869      711.641733
         1         2        18     1      121.483543      443.250927
         1         6         5     1      121.574608      693.256483
         1         6        12     1      119.089989      396.886996
         1         7         8     1      112.961021      607.112662
         1         7        13     1      109.649879      494.865320
         1         7        14     1      109.649879      494.865320
         2         1         6     1      118.908997      696.700545
         2         1         7     1      121.523109      490.379663
         2         3         4     1      121.561378      688.092369
         2         3         9     1      119.090416      391.897524
         2        18        19     1      111.438072      476.560671
         2        18        20     1      111.438072      476.560671
         2        18        21     1      111.438072      476.560671
         3         2        18     1      119.566299      474.655954
         3         4         5     1      119.484169      691.979053
         3         4        10     1      120.076157      432.774073
         4         3         9     1      119.457077      435.083457
         4         5         6     1      119.449936      696.556133
         4         5        11     1      120.452881      431.303295
         5         4        10     1      120.438354      431.202966
         5         6        12     1      119.354355      437.510951
         6         1         7     1      119.592834      496.884539
         6         5        11     1      120.129982      434.272016
         7         8        15     1      110.993935      502.509949
         7         8        16     1      110.993935      502.509949
         7         8        17     1      110.993935      502.509885
         8         7        13     1      109.047081      493.624312
         8         7        14     1      109.047081      493.624312
        13         7        14     1      106.034012      362.396768
        15         8        16     1      107.953880      364.623508
        15         8        17     1      107.953880      364.623476
        16         8        17     1      107.953880      364.623508
        19        18        20     1      107.470276      360.670364
        19        18        21     1      107.470276      360.670364
        20        18        21     1      107.470276      360.670364

[ dihedrals ] ; propers for gromacs 4.5 or higher, use funct 9
;       ai        aj        ak        al funct           phase               k        pn
         1         2         3         4     9        0.000000        0.083624         1
         1         2         3         4     9      180.000000       19.194645         2
         1         2         3         4     9        0.000000       -1.401391         3
         1         2         3         4     9      180.000000       -0.425957         4
         1         2         3         9     9        0.000000        0.049183         1
         1         2         3         9     9      180.000000       14.896977         2
         1         2         3         9     9        0.000000       -0.543221         3
         1         2         3         9     9      180.000000        0.061309         4
         1         2        18        19     9        0.000000       -0.004532         1
         1         2        18        19     9      180.000000        0.009863         2
         1         2        18        19     9        0.000000        0.223100         3
         1         2        18        19     9      180.000000        0.014076         4
         1         2        18        20     9        0.000000       -0.004532         1
         1         2        18        20     9      180.000000        0.009863         2
         1         2        18        20     9        0.000000        0.223100         3
         1         2        18        20     9      180.000000        0.014076         4
         1         2        18        21     9        0.000000       -0.004532         1
         1         2        18        21     9      180.000000        0.009863         2
         1         2        18        21     9        0.000000        0.223100         3
         1         2        18        21     9      180.000000        0.014076         4
         1         6         5         4     9        0.000000        0.076792         1
         1         6         5         4     9      180.000000       18.832134         2
         1         6         5         4     9        0.000000       -1.745800         3
         1         6         5         4     9      180.000000       -0.430099         4
         1         6         5        11     9        0.000000        0.015929         1
         1         6         5        11     9      180.000000       14.469811         2
         1         6         5        11     9        0.000000       -0.781984         3
         1         6         5        11     9      180.000000        0.061425         4
         1         7         8        15     9        0.000000       -0.070472         1
         1         7         8        15     9      180.000000        0.032397         2
         1         7         8        15     9        0.000000        0.657986         3
         1         7         8        15     9      180.000000        0.005913         4
         1         7         8        16     9        0.000000       -0.070472         1
         1         7         8        16     9      180.000000        0.032397         2
         1         7         8        16     9        0.000000        0.657986         3
         1         7         8        16     9      180.000000        0.005913         4
         1         7         8        17     9        0.000000       -0.070472         1
         1         7         8        17     9      180.000000        0.032398         2
         1         7         8        17     9        0.000000        0.657985         3
         1         7         8        17     9      180.000000        0.005913         4
         2         1         6         5     9        0.000000       -0.008398         1
         2         1         6         5     9      180.000000       19.069898         2
         2         1         6         5     9        0.000000       -1.476784         3
         2         1         6         5     9      180.000000       -0.417508         4
         2         1         6        12     9        0.000000       -0.005400         1
         2         1         6        12     9      180.000000       14.886563         2
         2         1         6        12     9        0.000000       -0.522510         3
         2         1         6        12     9      180.000000        0.002527         4
         2         1         7         8     9        0.000000        0.819759         1
         2         1         7         8     9      180.000000        0.354426         2
         2         1         7         8     9        0.000000        0.405928         3
         2         1         7         8     9      180.000000        0.249760         4
         2         1         7        13     9        0.000000       -0.133499         1
         2         1         7        13     9      180.000000        0.057452         2
         2         1         7        13     9        0.000000        0.206559         3
         2         1         7        13     9      180.000000       -0.040336         4
         2         1         7        14     9        0.000000       -0.133499         1
         2         1         7        14     9      180.000000        0.057452         2
         2         1         7        14     9        0.000000        0.206559         3
         2         1         7        14     9      180.000000       -0.040336         4
         2         3         4         5     9        0.000000       -0.023888         1
         2         3         4         5     9      180.000000       18.368671         2
         2         3         4         5     9        0.000000       -1.667615         3
         2         3         4         5     9      180.000000       -0.407565         4
         2         3         4        10     9        0.000000       -0.025854         1
         2         3         4        10     9      180.000000       14.113918         2
         2         3         4        10     9        0.000000       -0.766775         3
         2         3         4        10     9      180.000000        0.106571         4
         3         2         1         6     9        0.000000       -0.231419         1
         3         2         1         6     9      180.000000       18.503423         2
         3         2         1         6     9        0.000000       -1.257183         3
         3         2         1         6     9      180.000000       -0.500326         4
         3         2         1         7     9        0.000000        0.034655         1
         3         2         1         7     9      180.000000       14.790947         2
         3         2         1         7     9        0.000000       -0.066290         3
         3         2         1         7     9      180.000000       -0.224289         4
         3         2        18        19     9        0.000000       -0.022489         1
         3         2        18        19     9      180.000000        0.020851         2
         3         2        18        19     9        0.000000        0.000184         3
         3         2        18        19     9      180.000000        0.002302         4
         3         2        18        20     9        0.000000       -0.022489         1
         3         2        18        20     9      180.000000        0.020851         2
         3         2        18        20     9        0.000000        0.000184         3
         3         2        18        20     9      180.000000        0.002302         4
         3         2        18        21     9        0.000000       -0.022489         1
         3         2        18        21     9      180.000000        0.020851         2
         3         2        18        21     9        0.000000        0.000184         3
         3         2        18        21     9      180.000000        0.002302         4
         3         4         5         6     9        0.000000       -0.023575         1
         3         4         5         6     9      180.000000       18.835641         2
         3         4         5         6     9        0.000000       -1.755315         3
         3         4         5         6     9      180.000000       -0.418446         4
         3         4         5        11     9        0.000000        0.031254         1
         3         4         5        11     9      180.000000       14.432124         2
         3         4         5        11     9        0.000000       -0.826430         3
         3         4         5        11     9      180.000000        0.142058         4
         4         3         2        18     9        0.000000        0.091507         1
         4         3         2        18     9      180.000000       17.211888         2
         4         3         2        18     9        0.000000       -0.184646         3
         4         3         2        18     9      180.000000       -0.226825         4
         4         5         6        12     9        0.000000        0.040382         1
         4         5         6        12     9      180.000000       14.468369         2
         4         5         6        12     9        0.000000       -0.805949         3
         4         5         6        12     9      180.000000        0.172055         4
         5         4         3         9     9        0.000000       -0.015947         1
         5         4         3         9     9      180.000000       14.226580         2
         5         4         3         9     9        0.000000       -0.831616         3
         5         4         3         9     9      180.000000        0.187778         4
         5         6         1         7     9        0.000000        0.077239         1
         5         6         1         7     9      180.000000       16.518963         2
         5         6         1         7     9        0.000000       -0.139213         3
         5         6         1         7     9      180.000000       -0.230843         4
         6         1         2        18     9        0.000000       -0.018810         1
         6         1         2        18     9      180.000000       15.888328         2
         6         1         2        18     9        0.000000       -0.189665         3
         6         1         2        18     9      180.000000       -0.311959         4
         6         1         7         8     9        0.000000       -0.668789         1
         6         1         7         8     9      180.000000        0.612528         2
         6         1         7         8     9        0.000000       -0.330883         3
         6         1         7         8     9      180.000000        0.290442         4
         6         1         7        13     9        0.000000        0.265308         1
         6         1         7        13     9      180.000000       -0.012374         2
         6         1         7        13     9        0.000000       -0.189079         3
         6         1         7        13     9      180.000000       -0.041324         4
         6         1         7        14     9        0.000000        0.265308         1
         6         1         7        14     9      180.000000       -0.012374         2
         6         1         7        14     9        0.000000       -0.189079         3
         6         1         7        14     9      180.000000       -0.041324         4
         6         5         4        10     9        0.000000        0.004100         1
         6         5         4        10     9      180.000000       14.554327         2
         6         5         4        10     9        0.000000       -0.817635         3
         6         5         4        10     9      180.000000        0.123299         4
         7         1         2        18     9        0.000000       -0.246961         1
         7         1         2        18     9      180.000000       15.553470         2
         7         1         2        18     9        0.000000       -0.212237         3
         7         1         2        18     9      180.000000       -0.266112         4
         7         1         6        12     9        0.000000       -0.177734         1
         7         1         6        12     9      180.000000       13.047562         2
         7         1         6        12     9        0.000000       -0.415351         3
         7         1         6        12     9      180.000000        0.256410         4
         9         3         2        18     9        0.000000       -0.226198         1
         9         3         2        18     9      180.000000       13.491061         2
         9         3         2        18     9        0.000000       -0.477245         3
         9         3         2        18     9      180.000000        0.283698         4
         9         3         4        10     9        0.000000       -0.272856         1
         9         3         4        10     9      180.000000       10.773322         2
         9         3         4        10     9        0.000000       -0.530511         3
         9         3         4        10     9      180.000000        0.263523         4
        10         4         5        11     9        0.000000       -0.110426         1
        10         4         5        11     9      180.000000       11.525446         2
        10         4         5        11     9        0.000000       -0.561382         3
        10         4         5        11     9      180.000000        0.225392         4
        11         5         6        12     9        0.000000       -0.178839         1
        11         5         6        12     9      180.000000       11.321731         2
        11         5         6        12     9        0.000000       -0.629867         3
        11         5         6        12     9      180.000000        0.311018         4
        13         7         8        15     9        0.000000       -0.006540         1
        13         7         8        15     9      180.000000        0.024972         2
        13         7         8        15     9        0.000000        0.547819         3
        13         7         8        15     9      180.000000       -0.013086         4
        13         7         8        16     9        0.000000       -0.006539         1
        13         7         8        16     9      180.000000        0.024972         2
        13         7         8        16     9        0.000000        0.547819         3
        13         7         8        16     9      180.000000       -0.013086         4
        13         7         8        17     9        0.000000       -0.006540         1
        13         7         8        17     9      180.000000        0.024972         2
        13         7         8        17     9        0.000000        0.547819         3
        13         7         8        17     9      180.000000       -0.013086         4
        14         7         8        15     9        0.000000       -0.006539         1
        14         7         8        15     9      180.000000        0.024972         2
        14         7         8        15     9        0.000000        0.547819         3
        14         7         8        15     9      180.000000       -0.013086         4
        14         7         8        16     9        0.000000       -0.006539         1
        14         7         8        16     9      180.000000        0.024972         2
        14         7         8        16     9        0.000000        0.547819         3
        14         7         8        16     9      180.000000       -0.013086         4
        14         7         8        17     9        0.000000       -0.006540         1
        14         7         8        17     9      180.000000        0.024972         2
        14         7         8        17     9        0.000000        0.547819         3
        14         7         8        17     9      180.000000       -0.013086         4

[ dihedrals ] ; impropers
;       ai        aj        ak        al funct           phase               k        pn
         3         2         4         9     4      180.000000        0.541555         2
         3         4         9         2     4      180.000000        0.541555         2
         3         9         2         4     4      180.000000        0.541555         2
         4         3         5        10     4      180.000000        0.636721         2
         4         5        10         3     4      180.000000        0.636721         2
         4        10         3         5     4      180.000000        0.636721         2
         6         1         5        12     4      180.000000        0.395152         2
         6         5        12         1     4      180.000000        0.395152         2
         6        12         1         5     4      180.000000        0.395152         2

[ pairs ]
;       ai        aj funct
         1         4     1
         1         9     1
         1        11     1
         1        15     1
         1        16     1
         1        17     1
         1        19     1
         1        20     1
         1        21     1
         2         5     1
         2         8     1
         2        10     1
         2        12     1
         2        13     1
         2        14     1
         3         6     1
         3         7     1
         3        11     1
         3        19     1
         3        20     1
         3        21     1
         4        12     1
         4        18     1
         5         7     1
         5         9     1
         6         8     1
         6        10     1
         6        13     1
         6        14     1
         6        18     1
         7        12     1
         7        18     1
         9        10     1
         9        18     1
        10        11     1
        11        12     1
        13        15     1
        13        16     1
        13        17     1
        14        15     1
        14        16     1
        14        17     1
