; ITP file created by ByteFF-ML, 2025-12-06 03:44:31.446951

[ atomtypes ]
;name           bonded.type        at.num        mass        charge   ptype           sigma         epsilon
 c0bf                                   6      0.0000       0.00000       A     3.31482e-01     4.12838e-01
 c1bf                                   6      0.0000       0.00000       A     3.31503e-01     4.12394e-01
 c2bf                                   6      0.0000       0.00000       A     3.31519e-01     4.12989e-01
 c3bf                                   6      0.0000       0.00000       A     3.31488e-01     4.12659e-01
 c4bf                                   6      0.0000       0.00000       A     3.31519e-01     4.12989e-01
 c5bf                                   6      0.0000       0.00000       A     3.31503e-01     4.12394e-01
 c6bf                                   6      0.0000       0.00000       A     3.39822e-01     4.50981e-01
 c7bf                                   6      0.0000       0.00000       A     3.39759e-01     4.50120e-01
 h8bf                                   1      0.0000       0.00000       A     2.62516e-01     6.74371e-02
 h9bf                                   1      0.0000       0.00000       A     2.62498e-01     6.73334e-02
 h10bf                                  1      0.0000       0.00000       A     2.62498e-01     6.73334e-02
 h11bf                                  1      0.0000       0.00000       A     2.62516e-01     6.74371e-02
 h12bf                                  1      0.0000       0.00000       A     2.60042e-01     8.71486e-02
 h13bf                                  1      0.0000       0.00000       A     2.60042e-01     8.71486e-02
 h14bf                                  1      0.0000       0.00000       A     2.59988e-01     8.72651e-02
 h15bf                                  1      0.0000       0.00000       A     2.59988e-01     8.72651e-02
 h16bf                                  1      0.0000       0.00000       A     2.59988e-01     8.72651e-02
 c17bf                                  6      0.0000       0.00000       A     3.39812e-01     4.50526e-01
 h18bf                                  1      0.0000       0.00000       A     2.59993e-01     8.72348e-02
 h19bf                                  1      0.0000       0.00000       A     2.59993e-01     8.72348e-02
 h20bf                                  1      0.0000       0.00000       A     2.59993e-01     8.72348e-02

[ moleculetype ]
;name             nrexcl
 para_methyl_ethyl_benzene       3

[ atoms ]
;       nr            type      resi   res      atom      cgnr      charge          mass ; qtot
         1            c0bf         1   UNL        c0         1    -0.08785       12.0110 ; qtot   -0.088
         2            c1bf         1   UNL        c1         2    -0.10679       12.0110 ; qtot   -0.195
         3            c2bf         1   UNL        c2         3    -0.11328       12.0110 ; qtot   -0.308
         4            c3bf         1   UNL        c3         4    -0.07750       12.0110 ; qtot   -0.385
         5            c4bf         1   UNL        c4         5    -0.11328       12.0110 ; qtot   -0.499
         6            c5bf         1   UNL        c5         6    -0.10679       12.0110 ; qtot   -0.605
         7            c6bf         1   UNL        c6         7    -0.03041       12.0110 ; qtot   -0.636
         8            c7bf         1   UNL        c7         8    -0.09096       12.0110 ; qtot   -0.727
         9            h8bf         1   UNL        h8         9     0.11167        1.0080 ; qtot   -0.615
        10            h9bf         1   UNL        h9        10     0.11254        1.0080 ; qtot   -0.503
        11           h10bf         1   UNL       h10        11     0.11254        1.0080 ; qtot   -0.390
        12           h11bf         1   UNL       h11        12     0.11167        1.0080 ; qtot   -0.278
        13           h12bf         1   UNL       h12        13     0.04331        1.0080 ; qtot   -0.235
        14           h13bf         1   UNL       h13        14     0.04331        1.0080 ; qtot   -0.192
        15           h14bf         1   UNL       h14        15     0.03635        1.0080 ; qtot   -0.155
        16           h15bf         1   UNL       h15        16     0.03635        1.0080 ; qtot   -0.119
        17           h16bf         1   UNL       h16        17     0.03635        1.0080 ; qtot   -0.083
        18           c17bf         1   UNL       c17        18    -0.04723       12.0110 ; qtot   -0.130
        19           h18bf         1   UNL       h18        19     0.04333        1.0080 ; qtot   -0.087
        20           h19bf         1   UNL       h19        20     0.04333        1.0080 ; qtot   -0.043
        21           h20bf         1   UNL       h20        21     0.04334        1.0080 ; qtot   -0.000

[ bonds ]
;       ai        aj funct               r               k
         1         2     1        0.140234   290512.122607
         1         6     1        0.140234   290512.122607
         1         7     1        0.151350   198750.968188
         2         3     1        0.139786   314498.286719
         2         9     1        0.108758   313958.381152
         3         4     1        0.140295   289620.928564
         3        10     1        0.108758   314298.331152
         4         5     1        0.140295   289620.928564
         4        18     1        0.151137   205905.878882
         5         6     1        0.139786   314498.286719
         5        11     1        0.108758   314298.331152
         6        12     1        0.108758   313958.381152
         7         8     1        0.153884   184327.544971
         7        13     1        0.109559   293458.517676
         7        14     1        0.109559   293458.517676
         8        15     1        0.109428   299407.106396
         8        16     1        0.109428   299407.131934
         8        17     1        0.109428   299407.106396
        18        19     1        0.109458   298881.910205
        18        20     1        0.109458   298881.910205
        18        21     1        0.109458   298881.910205

[ angles ]
;       ai        aj        ak funct           theta             cth
         1         2         3     1      121.086044      701.335722
         1         2         9     1      119.470566      408.616989
         1         6         5     1      121.086044      701.335722
         1         6        12     1      119.470566      408.616989
         1         7         8     1      112.605812      615.612689
         1         7        13     1      109.444778      499.274397
         1         7        14     1      109.444778      499.274397
         2         1         6     1      117.758644      663.723646
         2         1         7     1      121.183426      497.652057
         2         3         4     1      121.092873      696.132855
         2         3        10     1      119.464760      436.770471
         3         2         9     1      119.479904      435.488093
         3         4         5     1      117.812355      685.791922
         3         4        18     1      121.064560      486.582454
         4         3        10     1      119.480209      407.056065
         4         5         6     1      121.092873      696.132855
         4         5        11     1      119.480209      407.056065
         4        18        19     1      111.275528      480.789201
         4        18        20     1      111.275528      480.789201
         4        18        21     1      111.275528      480.789201
         5         4        18     1      121.064560      486.582454
         5         6        12     1      119.479904      435.488093
         6         1         7     1      121.183426      497.652057
         6         5        11     1      119.464760      436.770471
         7         8        15     1      110.970444      500.467268
         7         8        16     1      110.970444      500.467268
         7         8        17     1      110.970444      500.467268
         8         7        13     1      109.248474      492.589740
         8         7        14     1      109.248474      492.589740
        13         7        14     1      106.370018      362.511845
        15         8        16     1      107.961159      364.643459
        15         8        17     1      107.961159      364.643491
        16         8        17     1      107.961159      364.643491
        19        18        20     1      107.633995      359.456202
        19        18        21     1      107.633995      359.456202
        20        18        21     1      107.633995      359.456202

[ dihedrals ] ; propers for gromacs 4.5 or higher, use funct 9
;       ai        aj        ak        al funct           phase               k        pn
         1         2         3         4     9        0.000000        0.092846         1
         1         2         3         4     9      180.000000       18.097754         2
         1         2         3         4     9        0.000000       -1.491351         3
         1         2         3         4     9      180.000000       -0.352529         4
         1         2         3        10     9        0.000000        0.025176         1
         1         2         3        10     9      180.000000       14.516444         2
         1         2         3        10     9        0.000000       -0.669115         3
         1         2         3        10     9      180.000000        0.130839         4
         1         6         5         4     9        0.000000        0.092846         1
         1         6         5         4     9      180.000000       18.097754         2
         1         6         5         4     9        0.000000       -1.491351         3
         1         6         5         4     9      180.000000       -0.352529         4
         1         6         5        11     9        0.000000        0.025176         1
         1         6         5        11     9      180.000000       14.516444         2
         1         6         5        11     9        0.000000       -0.669115         3
         1         6         5        11     9      180.000000        0.130839         4
         1         7         8        15     9        0.000000       -0.093922         1
         1         7         8        15     9      180.000000        0.043134         2
         1         7         8        15     9        0.000000        0.703336         3
         1         7         8        15     9      180.000000        0.020880         4
         1         7         8        16     9        0.000000       -0.093922         1
         1         7         8        16     9      180.000000        0.043134         2
         1         7         8        16     9        0.000000        0.703336         3
         1         7         8        16     9      180.000000        0.020880         4
         1         7         8        17     9        0.000000       -0.093922         1
         1         7         8        17     9      180.000000        0.043133         2
         1         7         8        17     9        0.000000        0.703336         3
         1         7         8        17     9      180.000000        0.020880         4
         2         1         6         5     9        0.000000       -0.110087         1
         2         1         6         5     9      180.000000       19.041993         2
         2         1         6         5     9        0.000000       -1.464618         3
         2         1         6         5     9      180.000000       -0.433133         4
         2         1         6        12     9        0.000000       -0.046080         1
         2         1         6        12     9      180.000000       14.679500         2
         2         1         6        12     9        0.000000       -0.607895         3
         2         1         6        12     9      180.000000        0.000863         4
         2         1         7         8     9        0.000000       -0.076459         1
         2         1         7         8     9      180.000000        0.683494         2
         2         1         7         8     9        0.000000       -0.002587         3
         2         1         7         8     9      180.000000        0.218613         4
         2         1         7        13     9        0.000000        0.018521         1
         2         1         7        13     9      180.000000       -0.038715         2
         2         1         7        13     9        0.000000       -0.008890         3
         2         1         7        13     9      180.000000       -0.011423         4
         2         1         7        14     9        0.000000        0.018521         1
         2         1         7        14     9      180.000000       -0.038715         2
         2         1         7        14     9        0.000000       -0.008890         3
         2         1         7        14     9      180.000000       -0.011423         4
         2         3         4         5     9        0.000000       -0.086427         1
         2         3         4         5     9      180.000000       18.766811         2
         2         3         4         5     9        0.000000       -1.393898         3
         2         3         4         5     9      180.000000       -0.429197         4
         2         3         4        18     9        0.000000        0.087871         1
         2         3         4        18     9      180.000000       15.665378         2
         2         3         4        18     9        0.000000       -0.175127         3
         2         3         4        18     9      180.000000       -0.110073         4
         3         2         1         6     9        0.000000       -0.110087         1
         3         2         1         6     9      180.000000       19.041991         2
         3         2         1         6     9        0.000000       -1.464619         3
         3         2         1         6     9      180.000000       -0.433133         4
         3         2         1         7     9        0.000000        0.018202         1
         3         2         1         7     9      180.000000       15.407618         2
         3         2         1         7     9        0.000000       -0.197709         3
         3         2         1         7     9      180.000000       -0.139636         4
         3         4         5         6     9        0.000000       -0.086427         1
         3         4         5         6     9      180.000000       18.766811         2
         3         4         5         6     9        0.000000       -1.393898         3
         3         4         5         6     9      180.000000       -0.429197         4
         3         4         5        11     9        0.000000       -0.055351         1
         3         4         5        11     9      180.000000       14.462197         2
         3         4         5        11     9        0.000000       -0.588955         3
         3         4         5        11     9      180.000000        0.094771         4
         3         4        18        19     9        0.000000       -0.020585         1
         3         4        18        19     9      180.000000        0.014888         2
         3         4        18        19     9        0.000000       -0.005037         3
         3         4        18        19     9      180.000000        0.004692         4
         3         4        18        20     9        0.000000       -0.020585         1
         3         4        18        20     9      180.000000        0.014888         2
         3         4        18        20     9        0.000000       -0.005037         3
         3         4        18        20     9      180.000000        0.004692         4
         3         4        18        21     9        0.000000       -0.020585         1
         3         4        18        21     9      180.000000        0.014888         2
         3         4        18        21     9        0.000000       -0.005037         3
         3         4        18        21     9      180.000000        0.004692         4
         4         3         2         9     9        0.000000        0.109705         1
         4         3         2         9     9      180.000000       14.347259         2
         4         3         2         9     9        0.000000       -0.693712         3
         4         3         2         9     9      180.000000        0.181396         4
         4         5         6        12     9        0.000000        0.109705         1
         4         5         6        12     9      180.000000       14.347257         2
         4         5         6        12     9        0.000000       -0.693711         3
         4         5         6        12     9      180.000000        0.181396         4
         5         4         3        10     9        0.000000       -0.055351         1
         5         4         3        10     9      180.000000       14.462197         2
         5         4         3        10     9        0.000000       -0.588955         3
         5         4         3        10     9      180.000000        0.094771         4
         5         4        18        19     9        0.000000       -0.020585         1
         5         4        18        19     9      180.000000        0.014888         2
         5         4        18        19     9        0.000000       -0.005037         3
         5         4        18        19     9      180.000000        0.004692         4
         5         4        18        20     9        0.000000       -0.020585         1
         5         4        18        20     9      180.000000        0.014888         2
         5         4        18        20     9        0.000000       -0.005037         3
         5         4        18        20     9      180.000000        0.004692         4
         5         4        18        21     9        0.000000       -0.020585         1
         5         4        18        21     9      180.000000        0.014888         2
         5         4        18        21     9        0.000000       -0.005037         3
         5         4        18        21     9      180.000000        0.004692         4
         5         6         1         7     9        0.000000        0.018202         1
         5         6         1         7     9      180.000000       15.407617         2
         5         6         1         7     9        0.000000       -0.197709         3
         5         6         1         7     9      180.000000       -0.139635         4
         6         1         2         9     9        0.000000       -0.046079         1
         6         1         2         9     9      180.000000       14.679499         2
         6         1         2         9     9        0.000000       -0.607895         3
         6         1         2         9     9      180.000000        0.000863         4
         6         1         7         8     9        0.000000       -0.076458         1
         6         1         7         8     9      180.000000        0.683493         2
         6         1         7         8     9        0.000000       -0.002587         3
         6         1         7         8     9      180.000000        0.218613         4
         6         1         7        13     9        0.000000        0.018521         1
         6         1         7        13     9      180.000000       -0.038715         2
         6         1         7        13     9        0.000000       -0.008890         3
         6         1         7        13     9      180.000000       -0.011423         4
         6         1         7        14     9        0.000000        0.018521         1
         6         1         7        14     9      180.000000       -0.038715         2
         6         1         7        14     9        0.000000       -0.008890         3
         6         1         7        14     9      180.000000       -0.011423         4
         6         5         4        18     9        0.000000        0.087872         1
         6         5         4        18     9      180.000000       15.665378         2
         6         5         4        18     9        0.000000       -0.175126         3
         6         5         4        18     9      180.000000       -0.110072         4
         7         1         2         9     9        0.000000       -0.203239         1
         7         1         2         9     9      180.000000       12.747614         2
         7         1         2         9     9        0.000000       -0.379608         3
         7         1         2         9     9      180.000000        0.229129         4
         7         1         6        12     9        0.000000       -0.203239         1
         7         1         6        12     9      180.000000       12.747611         2
         7         1         6        12     9        0.000000       -0.379607         3
         7         1         6        12     9      180.000000        0.229129         4
         9         2         3        10     9        0.000000       -0.142983         1
         9         2         3        10     9      180.000000       11.880521         2
         9         2         3        10     9        0.000000       -0.698911         3
         9         2         3        10     9      180.000000        0.330120         4
        10         3         4        18     9        0.000000       -0.198984         1
        10         3         4        18     9      180.000000       12.897139         2
        10         3         4        18     9        0.000000       -0.394243         3
        10         3         4        18     9      180.000000        0.265238         4
        11         5         4        18     9        0.000000       -0.198984         1
        11         5         4        18     9      180.000000       12.897139         2
        11         5         4        18     9        0.000000       -0.394243         3
        11         5         4        18     9      180.000000        0.265238         4
        11         5         6        12     9        0.000000       -0.142984         1
        11         5         6        12     9      180.000000       11.880521         2
        11         5         6        12     9        0.000000       -0.698911         3
        11         5         6        12     9      180.000000        0.330120         4
        13         7         8        15     9        0.000000       -0.006248         1
        13         7         8        15     9      180.000000        0.016477         2
        13         7         8        15     9        0.000000        0.551354         3
        13         7         8        15     9      180.000000       -0.011548         4
        13         7         8        16     9        0.000000       -0.006248         1
        13         7         8        16     9      180.000000        0.016478         2
        13         7         8        16     9        0.000000        0.551354         3
        13         7         8        16     9      180.000000       -0.011549         4
        13         7         8        17     9        0.000000       -0.006247         1
        13         7         8        17     9      180.000000        0.016477         2
        13         7         8        17     9        0.000000        0.551354         3
        13         7         8        17     9      180.000000       -0.011549         4
        14         7         8        15     9        0.000000       -0.006248         1
        14         7         8        15     9      180.000000        0.016478         2
        14         7         8        15     9        0.000000        0.551354         3
        14         7         8        15     9      180.000000       -0.011549         4
        14         7         8        16     9        0.000000       -0.006248         1
        14         7         8        16     9      180.000000        0.016478         2
        14         7         8        16     9        0.000000        0.551354         3
        14         7         8        16     9      180.000000       -0.011549         4
        14         7         8        17     9        0.000000       -0.006247         1
        14         7         8        17     9      180.000000        0.016477         2
        14         7         8        17     9        0.000000        0.551354         3
        14         7         8        17     9      180.000000       -0.011549         4

[ pairs ]
;       ai        aj funct
         1         4     1
         1        10     1
         1        11     1
         1        15     1
         1        16     1
         1        17     1
         2         5     1
         2         8     1
         2        12     1
         2        13     1
         2        14     1
         2        18     1
         3         6     1
         3         7     1
         3        11     1
         3        19     1
         3        20     1
         3        21     1
         4         9     1
         4        12     1
         5         7     1
         5        10     1
         5        19     1
         5        20     1
         5        21     1
         6         8     1
         6         9     1
         6        13     1
         6        14     1
         6        18     1
         7         9     1
         7        12     1
         9        10     1
        10        18     1
        11        12     1
        11        18     1
        13        15     1
        13        16     1
        13        17     1
        14        15     1
        14        16     1
        14        17     1
