; ITP file created by ByteFF-joint-25, 2025-07-14 11:28:30.951310

[ atomtypes ]
;name           bonded.type        at.num        mass        charge   ptype           sigma         epsilon
 c0bf                                   6      0.0000       0.00000       A     3.39775e-01     4.50917e-01    ;  uncertainty sigma = 0.000008, epsilon = 0.000650
 c1bf                                   6      0.0000       0.00000       A     3.31519e-01     4.13139e-01    ;  uncertainty sigma = 0.000012, epsilon = 0.000535
 c2bf                                   6      0.0000       0.00000       A     3.31549e-01     4.13265e-01    ;  uncertainty sigma = 0.000011, epsilon = 0.000806
 c3bf                                   6      0.0000       0.00000       A     3.31553e-01     4.13624e-01    ;  uncertainty sigma = 0.000010, epsilon = 0.001037
 o4bf                                   8      0.0000       0.00000       A     3.24291e-01     3.89970e-01    ;  uncertainty sigma = 0.000035, epsilon = 0.000893
 n5bf                                   7      0.0000       0.00000       A     3.38420e-01     3.94128e-01    ;  uncertainty sigma = 0.000021, epsilon = 0.001828
 c6bf                                   6      0.0000       0.00000       A     3.31541e-01     4.13453e-01    ;  uncertainty sigma = 0.000011, epsilon = 0.000975
 n7bf                                   7      0.0000       0.00000       A     3.38405e-01     3.93583e-01    ;  uncertainty sigma = 0.000015, epsilon = 0.000586
 n8bf                                   7      0.0000       0.00000       A     3.18947e-01     9.00100e-01    ;  uncertainty sigma = 0.000048, epsilon = 0.003773
 c9bf                                   6      0.0000       0.00000       A     3.39774e-01     4.50953e-01    ;  uncertainty sigma = 0.000012, epsilon = 0.001229
 c10bf                                  6      0.0000       0.00000       A     3.39776e-01     4.51373e-01    ;  uncertainty sigma = 0.000009, epsilon = 0.000969
 c11bf                                  6      0.0000       0.00000       A     3.39784e-01     4.51219e-01    ;  uncertainty sigma = 0.000006, epsilon = 0.000696
 n12bf                                  7      0.0000       0.00000       A     3.18086e-01     6.84039e-01    ;  uncertainty sigma = 0.000014, epsilon = 0.001467
 c13bf                                  6      0.0000       0.00000       A     3.39784e-01     4.51219e-01    ;  uncertainty sigma = 0.000006, epsilon = 0.000696
 c14bf                                  6      0.0000       0.00000       A     3.39776e-01     4.51373e-01    ;  uncertainty sigma = 0.000009, epsilon = 0.000969
 c15bf                                  6      0.0000       0.00000       A     3.39774e-01     4.50953e-01    ;  uncertainty sigma = 0.000012, epsilon = 0.001229
 c16bf                                  6      0.0000       0.00000       A     3.31486e-01     4.13134e-01    ;  uncertainty sigma = 0.000026, epsilon = 0.002146
 o17bf                                  8      0.0000       0.00000       A     3.04851e-01     6.12019e-01    ;  uncertainty sigma = 0.000026, epsilon = 0.001020
 c18bf                                  6      0.0000       0.00000       A     3.31488e-01     4.12415e-01    ;  uncertainty sigma = 0.000034, epsilon = 0.001171
 c19bf                                  6      0.0000       0.00000       A     3.31513e-01     4.12834e-01    ;  uncertainty sigma = 0.000016, epsilon = 0.001291
 f20bf                                  9      0.0000       0.00000       A     3.03451e-01     3.47872e-01    ;  uncertainty sigma = 0.000029, epsilon = 0.000470
 c21bf                                  6      0.0000       0.00000       A     3.31522e-01     4.13335e-01    ;  uncertainty sigma = 0.000005, epsilon = 0.000662
 c22bf                                  6      0.0000       0.00000       A     3.31521e-01     4.13421e-01    ;  uncertainty sigma = 0.000006, epsilon = 0.000781
 c23bf                                  6      0.0000       0.00000       A     3.31510e-01     4.13240e-01    ;  uncertainty sigma = 0.000014, epsilon = 0.000923
 c24bf                                  6      0.0000       0.00000       A     3.31553e-01     4.13601e-01    ;  uncertainty sigma = 0.000013, epsilon = 0.001582
 n25bf                                  7      0.0000       0.00000       A     3.20569e-01     8.54049e-01    ;  uncertainty sigma = 0.000030, epsilon = 0.002792
 n26bf                                  7      0.0000       0.00000       A     3.38413e-01     3.93694e-01    ;  uncertainty sigma = 0.000010, epsilon = 0.000693
 c27bf                                  6      0.0000       0.00000       A     3.31537e-01     4.13587e-01    ;  uncertainty sigma = 0.000007, epsilon = 0.000835
 c28bf                                  6      0.0000       0.00000       A     3.31537e-01     4.13587e-01    ;  uncertainty sigma = 0.000007, epsilon = 0.000835
 n29bf                                  7      0.0000       0.00000       A     3.38413e-01     3.93694e-01    ;  uncertainty sigma = 0.000010, epsilon = 0.000693
 h30bf                                  1      0.0000       0.00000       A     2.60034e-01     8.66332e-02    ;  uncertainty sigma = 0.000007, epsilon = 0.000537
 h31bf                                  1      0.0000       0.00000       A     2.60034e-01     8.66332e-02    ;  uncertainty sigma = 0.000007, epsilon = 0.000537
 h32bf                                  1      0.0000       0.00000       A     2.60034e-01     8.66332e-02    ;  uncertainty sigma = 0.000007, epsilon = 0.000537
 h33bf                                  1      0.0000       0.00000       A     2.62592e-01     6.70784e-02    ;  uncertainty sigma = 0.000016, epsilon = 0.000509
 h34bf                                  1      0.0000       0.00000       A     5.37861e-02     1.96241e-02    ;  uncertainty sigma = 0.000233, epsilon = 0.000757
 h35bf                                  1      0.0000       0.00000       A     2.42199e-01     8.66324e-02    ;  uncertainty sigma = 0.000024, epsilon = 0.001250
 h36bf                                  1      0.0000       0.00000       A     2.42199e-01     8.66324e-02    ;  uncertainty sigma = 0.000024, epsilon = 0.001250
 h37bf                                  1      0.0000       0.00000       A     2.59994e-01     8.68892e-02    ;  uncertainty sigma = 0.000026, epsilon = 0.000553
 h38bf                                  1      0.0000       0.00000       A     2.42194e-01     8.66543e-02    ;  uncertainty sigma = 0.000021, epsilon = 0.000863
 h39bf                                  1      0.0000       0.00000       A     2.42194e-01     8.66543e-02    ;  uncertainty sigma = 0.000021, epsilon = 0.000863
 h40bf                                  1      0.0000       0.00000       A     2.42194e-01     8.66545e-02    ;  uncertainty sigma = 0.000021, epsilon = 0.000863
 h41bf                                  1      0.0000       0.00000       A     2.42194e-01     8.66545e-02    ;  uncertainty sigma = 0.000021, epsilon = 0.000863
 h42bf                                  1      0.0000       0.00000       A     2.59994e-01     8.68892e-02    ;  uncertainty sigma = 0.000026, epsilon = 0.000553
 h43bf                                  1      0.0000       0.00000       A     2.42199e-01     8.66324e-02    ;  uncertainty sigma = 0.000024, epsilon = 0.001250
 h44bf                                  1      0.0000       0.00000       A     2.42199e-01     8.66324e-02    ;  uncertainty sigma = 0.000024, epsilon = 0.001250
 h45bf                                  1      0.0000       0.00000       A     2.62565e-01     6.70682e-02    ;  uncertainty sigma = 0.000010, epsilon = 0.000430
 h46bf                                  1      0.0000       0.00000       A     2.62565e-01     6.69658e-02    ;  uncertainty sigma = 0.000011, epsilon = 0.000532
 h47bf                                  1      0.0000       0.00000       A     2.62555e-01     6.71502e-02    ;  uncertainty sigma = 0.000013, epsilon = 0.000465
 h48bf                                  1      0.0000       0.00000       A     2.53604e-01     6.70806e-02    ;  uncertainty sigma = 0.000028, epsilon = 0.000600
 h49bf                                  1      0.0000       0.00000       A     2.53604e-01     6.70807e-02    ;  uncertainty sigma = 0.000028, epsilon = 0.000600

[ moleculetype ]
;name             nrexcl
 MOL                   3

[ atoms ]
;       nr            type      resi   res      atom      cgnr      charge          mass ; qtot
         1            c0bf         1   UNL        c0         1    -0.15032       12.0110 ; qtot   -0.150
         2            c1bf         1   UNL        c1         2     0.51168       12.0110 ; qtot    0.361
         3            c2bf         1   UNL        c2         3    -0.44264       12.0110 ; qtot   -0.081
         4            c3bf         1   UNL        c3         4     0.69830       12.0110 ; qtot    0.617
         5            o4bf         1   UNL        o4         5    -0.59273       15.9990 ; qtot    0.024
         6            n5bf         1   UNL        n5         6    -0.84746       14.0070 ; qtot   -0.823
         7            c6bf         1   UNL        c6         7     0.93685       12.0110 ; qtot    0.114
         8            n7bf         1   UNL        n7         8    -0.79484       14.0070 ; qtot   -0.681
         9            n8bf         1   UNL        n8         9    -0.78660       14.0070 ; qtot   -1.468
        10            c9bf         1   UNL        c9        10     0.23516       12.0110 ; qtot   -1.233
        11           c10bf         1   UNL       c10        11    -0.09743       12.0110 ; qtot   -1.330
        12           c11bf         1   UNL       c11        12     0.11057       12.0110 ; qtot   -1.219
        13           n12bf         1   UNL       n12        13    -0.47239       14.0070 ; qtot   -1.692
        14           c13bf         1   UNL       c13        14     0.11057       12.0110 ; qtot   -1.581
        15           c14bf         1   UNL       c14        15    -0.09743       12.0110 ; qtot   -1.679
        16           c15bf         1   UNL       c15        16     0.23516       12.0110 ; qtot   -1.444
        17           c16bf         1   UNL       c16        17     0.70764       12.0110 ; qtot   -0.736
        18           o17bf         1   UNL       o17        18    -0.58293       15.9990 ; qtot   -1.319
        19           c18bf         1   UNL       c18        19    -0.15596       12.0110 ; qtot   -1.475
        20           c19bf         1   UNL       c19        20     0.16292       12.0110 ; qtot   -1.312
        21           f20bf         1   UNL       f20        21    -0.13494       18.9980 ; qtot   -1.447
        22           c21bf         1   UNL       c21        22    -0.15817       12.0110 ; qtot   -1.605
        23           c22bf         1   UNL       c22        23    -0.08197       12.0110 ; qtot   -1.687
        24           c23bf         1   UNL       c23        24    -0.13048       12.0110 ; qtot   -1.817
        25           c24bf         1   UNL       c24        25     0.07222       12.0110 ; qtot   -1.745
        26           n25bf         1   UNL       n25        26     0.30201       14.0070 ; qtot   -1.443
        27           n26bf         1   UNL       n26        27    -0.47243       14.0070 ; qtot   -1.916
        28           c27bf         1   UNL       c27        28     0.20275       12.0110 ; qtot   -1.713
        29           c28bf         1   UNL       c28        29     0.20275       12.0110 ; qtot   -1.510
        30           n29bf         1   UNL       n29        30    -0.47243       14.0070 ; qtot   -1.983
        31           h30bf         1   UNL       h30        31     0.05901        1.0080 ; qtot   -1.924
        32           h31bf         1   UNL       h31        32     0.05901        1.0080 ; qtot   -1.865
        33           h32bf         1   UNL       h32        33     0.05901        1.0080 ; qtot   -1.806
        34           h33bf         1   UNL       h33        34     0.16271        1.0080 ; qtot   -1.643
        35           h34bf         1   UNL       h34        35     0.44555        1.0080 ; qtot   -1.197
        36           h35bf         1   UNL       h35        36     0.05891        1.0080 ; qtot   -1.138
        37           h36bf         1   UNL       h36        37     0.05891        1.0080 ; qtot   -1.079
        38           h37bf         1   UNL       h37        38     0.07237        1.0080 ; qtot   -1.007
        39           h38bf         1   UNL       h38        39     0.05981        1.0080 ; qtot   -0.947
        40           h39bf         1   UNL       h39        40     0.05981        1.0080 ; qtot   -0.887
        41           h40bf         1   UNL       h40        41     0.05981        1.0080 ; qtot   -0.828
        42           h41bf         1   UNL       h41        42     0.05981        1.0080 ; qtot   -0.768
        43           h42bf         1   UNL       h42        43     0.07237        1.0080 ; qtot   -0.695
        44           h43bf         1   UNL       h43        44     0.05891        1.0080 ; qtot   -0.637
        45           h44bf         1   UNL       h44        45     0.05891        1.0080 ; qtot   -0.578
        46           h45bf         1   UNL       h45        46     0.15846        1.0080 ; qtot   -0.419
        47           h46bf         1   UNL       h46        47     0.14574        1.0080 ; qtot   -0.273
        48           h47bf         1   UNL       h47        48     0.16350        1.0080 ; qtot   -0.110
        49           h48bf         1   UNL       h48        49     0.05496        1.0080 ; qtot   -0.055
        50           h49bf         1   UNL       h49        50     0.05500        1.0080 ; qtot    0.000

[ bonds ]
;       ai        aj funct               r               k
         1         2     1        0.150569   257696.119873    ;  uncertainty r = 0.000062, k = 7.256885
         1        31     1        0.109441   310673.287402    ;  uncertainty r = 0.000014, k = 1.675706
         1        32     1        0.109441   310673.287402    ;  uncertainty r = 0.000014, k = 1.675706
         1        33     1        0.109441   310673.287402    ;  uncertainty r = 0.000014, k = 1.675706
         2         3     1        0.140201   480172.939648    ;  uncertainty r = 0.000154, k = 14.529867
         2         8     1        0.134956   460514.932520    ;  uncertainty r = 0.000139, k = 13.950079
         3         4     1        0.141154   437977.463086    ;  uncertainty r = 0.000068, k = 8.914977
         3        34     1        0.108829   346620.139746    ;  uncertainty r = 0.000103, k = 3.328314
         4         5     1        0.138480   463732.914746    ;  uncertainty r = 0.000271, k = 17.963336
         4         6     1        0.136241   524417.564941    ;  uncertainty r = 0.000353, k = 20.478799
         5        35     1        0.098010   493833.760938    ;  uncertainty r = 0.000053, k = 6.531954
         6         7     1        0.136874   476327.561719    ;  uncertainty r = 0.000294, k = 18.631175
         7         8     1        0.135715   487174.397852    ;  uncertainty r = 0.000141, k = 12.979907
         7         9     1        0.136664   313966.042285    ;  uncertainty r = 0.000129, k = 19.119011
         9        10     1        0.146389   223637.813379    ;  uncertainty r = 0.000060, k = 14.203644
         9        16     1        0.146389   223637.787842    ;  uncertainty r = 0.000060, k = 14.203624
        10        11     1        0.153378   218045.467334    ;  uncertainty r = 0.000067, k = 7.088220
        10        36     1        0.109551   306518.450781    ;  uncertainty r = 0.000069, k = 2.534282
        10        37     1        0.109551   306518.450781    ;  uncertainty r = 0.000069, k = 2.534282
        11        12     1        0.153480   216617.049121    ;  uncertainty r = 0.000023, k = 7.412723
        11        15     1        0.154451   200722.496875    ;  uncertainty r = 0.000080, k = 20.796785
        11        38     1        0.109350   305021.261133    ;  uncertainty r = 0.000029, k = 3.829702
        12        13     1        0.146976   241154.380664    ;  uncertainty r = 0.000047, k = 15.575172
        12        39     1        0.109439   307434.875488    ;  uncertainty r = 0.000026, k = 1.171544
        12        40     1        0.109439   307434.875488    ;  uncertainty r = 0.000026, k = 1.171544
        13        14     1        0.146976   241154.380664    ;  uncertainty r = 0.000047, k = 15.575144
        13        17     1        0.135088   335723.021045    ;  uncertainty r = 0.000166, k = 15.024462
        14        15     1        0.153480   216617.049121    ;  uncertainty r = 0.000023, k = 7.412681
        14        41     1        0.109439   307434.875488    ;  uncertainty r = 0.000026, k = 1.171521
        14        42     1        0.109439   307434.875488    ;  uncertainty r = 0.000026, k = 1.171521
        15        16     1        0.153378   218045.441797    ;  uncertainty r = 0.000067, k = 7.088228
        15        43     1        0.109350   305021.261133    ;  uncertainty r = 0.000029, k = 3.829660
        16        44     1        0.109551   306518.450781    ;  uncertainty r = 0.000069, k = 2.534287
        16        45     1        0.109551   306518.450781    ;  uncertainty r = 0.000069, k = 2.534287
        17        18     1        0.123492   739384.865723    ;  uncertainty r = 0.000039, k = 10.151716
        17        19     1        0.151093   272101.603271    ;  uncertainty r = 0.000079, k = 31.154101
        19        20     1        0.139399   331888.649609    ;  uncertainty r = 0.000087, k = 16.801357
        19        25     1        0.139529   322378.221484    ;  uncertainty r = 0.000112, k = 6.618765
        20        21     1        0.135284   339697.693359    ;  uncertainty r = 0.000139, k = 6.883764
        20        22     1        0.138876   355374.082080    ;  uncertainty r = 0.000029, k = 4.848304
        22        23     1        0.139230   385818.044873    ;  uncertainty r = 0.000031, k = 3.156029
        22        46     1        0.108754   335743.833789    ;  uncertainty r = 0.000014, k = 1.461762
        23        24     1        0.139117   371572.781299    ;  uncertainty r = 0.000042, k = 2.923689
        23        47     1        0.108705   332118.687891    ;  uncertainty r = 0.000011, k = 1.593644
        24        25     1        0.139176   333973.831201    ;  uncertainty r = 0.000089, k = 2.958672
        24        48     1        0.108623   333131.336426    ;  uncertainty r = 0.000019, k = 1.837628
        25        26     1        0.140554   317671.476855    ;  uncertainty r = 0.000102, k = 8.472881
        26        27     1        0.134456   229486.015723    ;  uncertainty r = 0.000080, k = 10.859863
        26        30     1        0.134456   229486.015723    ;  uncertainty r = 0.000080, k = 10.859863
        27        28     1        0.132965   463550.937305    ;  uncertainty r = 0.000052, k = 7.730519
        28        29     1        0.141781   249584.001709    ;  uncertainty r = 0.000103, k = 15.332670
        28        49     1        0.108418   339910.136572    ;  uncertainty r = 0.000037, k = 1.124302
        29        30     1        0.132965   463550.937305    ;  uncertainty r = 0.000052, k = 7.730523
        29        50     1        0.108418   339910.136572    ;  uncertainty r = 0.000037, k = 1.124299

[ angles ]
;       ai        aj        ak funct           theta             cth
         1         2         3     1      122.416016      414.131313    ;  uncertainty theta = 0.002564, k = 0.204237
         1         2         8     1      118.697464      502.569993    ;  uncertainty theta = 0.001843, k = 0.159005
         2         1        31     1      108.873459      386.925066    ;  uncertainty theta = 0.001564, k = 0.050495
         2         1        32     1      108.873459      386.925066    ;  uncertainty theta = 0.001564, k = 0.050495
         2         1        33     1      108.873459      386.925066    ;  uncertainty theta = 0.001564, k = 0.050495
         2         3         4     1      114.822586      471.587766    ;  uncertainty theta = 0.007649, k = 0.257461
         2         3        34     1      123.330704      267.961655    ;  uncertainty theta = 0.001150, k = 0.112521
         2         8         7     1      115.976685      410.900102    ;  uncertainty theta = 0.008152, k = 0.271339
         3         2         8     1      120.808182      658.695197    ;  uncertainty theta = 0.005052, k = 0.133398
         3         4         5     1      123.247986      525.230475    ;  uncertainty theta = 0.006727, k = 0.420589
         3         4         6     1      122.441811      567.621885    ;  uncertainty theta = 0.003167, k = 0.127559
         4         3        34     1      124.190697      287.762555    ;  uncertainty theta = 0.002800, k = 0.113151
         4         5        35     1      112.933006      593.921277    ;  uncertainty theta = 0.004011, k = 0.169209
         4         6         7     1      121.659058      445.879047    ;  uncertainty theta = 0.008401, k = 0.349340
         5         4         6     1      123.344193      989.093105    ;  uncertainty theta = 0.002956, k = 0.179303
         6         7         8     1      129.463318      737.416018    ;  uncertainty theta = 0.004811, k = 0.113314
         6         7         9     1      119.859398      566.056971    ;  uncertainty theta = 0.010594, k = 0.236556
         7         9        10     1      113.772537      433.537824    ;  uncertainty theta = 0.004363, k = 0.257476
         7         9        16     1      113.772537      433.537824    ;  uncertainty theta = 0.004363, k = 0.257476
         8         7         9     1      120.056664      554.765674    ;  uncertainty theta = 0.008228, k = 0.252422
         9        10        11     1      105.541245      834.709596    ;  uncertainty theta = 0.001837, k = 0.094106
         9        10        36     1      108.499168      455.575711    ;  uncertainty theta = 0.001081, k = 0.068898
         9        10        37     1      108.499168      455.575711    ;  uncertainty theta = 0.001081, k = 0.068898
         9        16        15     1      105.541245      834.709596    ;  uncertainty theta = 0.001837, k = 0.094106
         9        16        44     1      108.499168      455.575711    ;  uncertainty theta = 0.001081, k = 0.068897
         9        16        45     1      108.499168      455.575711    ;  uncertainty theta = 0.001081, k = 0.068897
        10         9        16     1      112.777359      484.843313    ;  uncertainty theta = 0.009830, k = 0.340984
        10        11        12     1      113.001526      495.885112    ;  uncertainty theta = 0.002967, k = 0.272650
        10        11        15     1      106.407143      696.228300    ;  uncertainty theta = 0.000820, k = 0.121960
        10        11        38     1      108.909218      387.529593    ;  uncertainty theta = 0.002428, k = 0.196423
        11        10        36     1      109.942749      401.681046    ;  uncertainty theta = 0.001744, k = 0.042629
        11        10        37     1      109.942749      401.681046    ;  uncertainty theta = 0.001744, k = 0.042629
        11        12        13     1      106.005104      800.142884    ;  uncertainty theta = 0.002837, k = 0.185313
        11        12        39     1      109.812805      398.157914    ;  uncertainty theta = 0.002056, k = 0.096133
        11        12        40     1      109.812805      398.157914    ;  uncertainty theta = 0.002056, k = 0.096133
        11        15        14     1      106.536072      683.535718    ;  uncertainty theta = 0.002057, k = 0.120116
        11        15        16     1      106.407143      696.228492    ;  uncertainty theta = 0.000820, k = 0.121960
        11        15        43     1      109.787766      408.249925    ;  uncertainty theta = 0.001833, k = 0.098421
        12        11        15     1      106.536072      683.535654    ;  uncertainty theta = 0.002057, k = 0.120117
        12        11        38     1      108.976547      381.109245    ;  uncertainty theta = 0.002391, k = 0.150517
        12        13        14     1      114.311745      540.101883    ;  uncertainty theta = 0.003229, k = 0.142692
        12        13        17     1      117.974327      368.182647    ;  uncertainty theta = 0.003980, k = 0.157584
        13        12        39     1      109.203384      457.892789    ;  uncertainty theta = 0.001598, k = 0.109127
        13        12        40     1      109.203384      457.892789    ;  uncertainty theta = 0.001598, k = 0.109127
        13        14        15     1      106.005104      800.142884    ;  uncertainty theta = 0.002837, k = 0.185312
        13        14        41     1      109.203384      457.892789    ;  uncertainty theta = 0.001598, k = 0.109127
        13        14        42     1      109.203384      457.892789    ;  uncertainty theta = 0.001598, k = 0.109127
        13        17        18     1      124.922256      740.345444    ;  uncertainty theta = 0.002458, k = 0.115631
        13        17        19     1      112.159889      368.733068    ;  uncertainty theta = 0.002788, k = 0.265066
        14        13        17     1      117.974327      368.182647    ;  uncertainty theta = 0.003980, k = 0.157584
        14        15        16     1      113.001526      495.885112    ;  uncertainty theta = 0.002967, k = 0.272650
        14        15        43     1      108.976547      381.109245    ;  uncertainty theta = 0.002391, k = 0.150517
        15        11        38     1      109.787766      408.249925    ;  uncertainty theta = 0.001833, k = 0.098421
        15        14        41     1      109.812805      398.157914    ;  uncertainty theta = 0.002056, k = 0.096133
        15        14        42     1      109.812805      398.157914    ;  uncertainty theta = 0.002056, k = 0.096133
        15        16        44     1      109.942749      401.681014    ;  uncertainty theta = 0.001744, k = 0.042629
        15        16        45     1      109.942749      401.681014    ;  uncertainty theta = 0.001744, k = 0.042629
        16        15        43     1      108.909218      387.529561    ;  uncertainty theta = 0.002428, k = 0.196423
        17        19        20     1      122.644753      394.633059    ;  uncertainty theta = 0.009716, k = 0.281698
        17        19        25     1      121.727440      360.483272    ;  uncertainty theta = 0.007459, k = 0.258991
        18        17        19     1      123.973495      474.716636    ;  uncertainty theta = 0.004986, k = 0.295298
        19        20        21     1      116.293533      481.718082    ;  uncertainty theta = 0.003628, k = 0.151958
        19        20        22     1      125.257851      358.228537    ;  uncertainty theta = 0.006392, k = 0.161234
        19        25        24     1      126.248352      383.964293    ;  uncertainty theta = 0.008470, k = 0.143041
        19        25        26     1      115.625549      424.401221    ;  uncertainty theta = 0.005276, k = 0.425221
        20        19        25     1      120.519882      451.019061    ;  uncertainty theta = 0.010533, k = 0.145475
        20        22        23     1      116.907005      480.293111    ;  uncertainty theta = 0.004692, k = 0.077746
        20        22        46     1      120.257706      280.421881    ;  uncertainty theta = 0.001644, k = 0.051464
        21        20        22     1      119.307655      515.150978    ;  uncertainty theta = 0.004276, k = 0.124646
        22        23        24     1      119.580162      501.480038    ;  uncertainty theta = 0.001152, k = 0.050795
        22        23        47     1      120.085129      283.076623    ;  uncertainty theta = 0.000551, k = 0.029815
        23        22        46     1      122.091454      282.690757    ;  uncertainty theta = 0.001292, k = 0.025850
        23        24        25     1      119.295853      511.815576    ;  uncertainty theta = 0.002200, k = 0.078353
        23        24        48     1      121.511391      292.121356    ;  uncertainty theta = 0.001401, k = 0.054323
        24        23        47     1      119.901108      278.613949    ;  uncertainty theta = 0.000633, k = 0.016225
        24        25        26     1      118.568016      453.799094    ;  uncertainty theta = 0.002843, k = 0.118727
        25        24        48     1      118.140259      263.598991    ;  uncertainty theta = 0.002697, k = 0.141621
        25        26        27     1      116.169701      430.317914    ;  uncertainty theta = 0.006654, k = 0.182017
        25        26        30     1      116.169701      430.317914    ;  uncertainty theta = 0.006654, k = 0.182017
        26        27        28     1      105.336914      920.571231    ;  uncertainty theta = 0.004509, k = 0.170853
        26        30        29     1      105.336914      920.571231    ;  uncertainty theta = 0.004509, k = 0.170853
        27        26        30     1      113.935104     1160.946488    ;  uncertainty theta = 0.004391, k = 0.191360
        27        28        29     1      108.874611      885.375796    ;  uncertainty theta = 0.003815, k = 0.097431
        27        28        49     1      119.790878      274.219077    ;  uncertainty theta = 0.003825, k = 0.115835
        28        29        30     1      108.874611      885.375796    ;  uncertainty theta = 0.003815, k = 0.097431
        28        29        50     1      127.065445      242.460712    ;  uncertainty theta = 0.004115, k = 0.077998
        29        28        49     1      127.065445      242.460712    ;  uncertainty theta = 0.004115, k = 0.077998
        30        29        50     1      119.790878      274.219077    ;  uncertainty theta = 0.003825, k = 0.115835
        31         1        32     1      107.160439      312.277414    ;  uncertainty theta = 0.001265, k = 0.034556
        31         1        33     1      107.160439      312.277414    ;  uncertainty theta = 0.001265, k = 0.034556
        32         1        33     1      107.160439      312.277414    ;  uncertainty theta = 0.001265, k = 0.034556
        36        10        37     1      105.123001      312.324913    ;  uncertainty theta = 0.002382, k = 0.114503
        39        12        40     1      105.371445      309.387890    ;  uncertainty theta = 0.003860, k = 0.079572
        41        14        42     1      105.371445      309.387890    ;  uncertainty theta = 0.003860, k = 0.079571
        44        16        45     1      105.123001      312.324913    ;  uncertainty theta = 0.002382, k = 0.114503

[ dihedrals ] ; propers for gromacs 4.5 or higher, use funct 9
;       ai        aj        ak        al funct           phase               k        pn
         1         2         3         4     9        0.000000        0.009230         1    ;  uncertainty k = 0.424822
         1         2         3         4     9      180.000000        9.090060         2    ;  uncertainty k = 0.253764
         1         2         3         4     9        0.000000        1.011517         3    ;  uncertainty k = 0.317727
         1         2         3         4     9      180.000000        1.294761         4    ;  uncertainty k = 0.275982
         1         2         3        34     9        0.000000       -0.257754         1    ;  uncertainty k = 0.380299
         1         2         3        34     9      180.000000        6.981274         2    ;  uncertainty k = 0.339666
         1         2         3        34     9        0.000000        0.704096         3    ;  uncertainty k = 0.252181
         1         2         3        34     9      180.000000        0.768154         4    ;  uncertainty k = 0.252052
         1         2         8         7     9        0.000000        0.033722         1    ;  uncertainty k = 1.084867
         1         2         8         7     9      180.000000       14.593285         2    ;  uncertainty k = 0.515870
         1         2         8         7     9        0.000000        2.412732         3    ;  uncertainty k = 0.363177
         1         2         8         7     9      180.000000        1.613952         4    ;  uncertainty k = 0.459539
         2         3         4         5     9        0.000000       -0.506332         1    ;  uncertainty k = 0.486519
         2         3         4         5     9      180.000000        7.914712         2    ;  uncertainty k = 0.330764
         2         3         4         5     9        0.000000        0.684738         3    ;  uncertainty k = 0.422466
         2         3         4         5     9      180.000000        1.088524         4    ;  uncertainty k = 0.375944
         2         3         4         6     9        0.000000       -0.255532         1    ;  uncertainty k = 0.408256
         2         3         4         6     9      180.000000        8.825289         2    ;  uncertainty k = 0.822364
         2         3         4         6     9        0.000000       -1.185927         3    ;  uncertainty k = 0.610232
         2         3         4         6     9      180.000000        1.088013         4    ;  uncertainty k = 0.290272
         2         8         7         6     9        0.000000       -0.420125         1    ;  uncertainty k = 0.987427
         2         8         7         6     9      180.000000        9.396632         2    ;  uncertainty k = 0.833705
         2         8         7         6     9        0.000000        0.638958         3    ;  uncertainty k = 0.558560
         2         8         7         6     9      180.000000        0.855146         4    ;  uncertainty k = 0.078237
         2         8         7         9     9        0.000000        0.582686         1    ;  uncertainty k = 1.004373
         2         8         7         9     9      180.000000       10.783365         2    ;  uncertainty k = 0.344298
         2         8         7         9     9        0.000000        1.712592         3    ;  uncertainty k = 0.353240
         2         8         7         9     9      180.000000        1.008059         4    ;  uncertainty k = 0.185023
         3         2         1        31     9        0.000000       -0.254927         1    ;  uncertainty k = 0.275137
         3         2         1        31     9      180.000000        2.363907         2    ;  uncertainty k = 0.178024
         3         2         1        31     9        0.000000        0.231486         3    ;  uncertainty k = 0.054062
         3         2         1        31     9      180.000000        0.142249         4    ;  uncertainty k = 0.023168
         3         2         1        32     9        0.000000       -0.254927         1    ;  uncertainty k = 0.275137
         3         2         1        32     9      180.000000        2.363907         2    ;  uncertainty k = 0.178024
         3         2         1        32     9        0.000000        0.231486         3    ;  uncertainty k = 0.054062
         3         2         1        32     9      180.000000        0.142249         4    ;  uncertainty k = 0.023168
         3         2         1        33     9        0.000000       -0.254927         1    ;  uncertainty k = 0.275137
         3         2         1        33     9      180.000000        2.363907         2    ;  uncertainty k = 0.178024
         3         2         1        33     9        0.000000        0.231486         3    ;  uncertainty k = 0.054062
         3         2         1        33     9      180.000000        0.142249         4    ;  uncertainty k = 0.023168
         3         2         8         7     9        0.000000       -0.399716         1    ;  uncertainty k = 0.433039
         3         2         8         7     9      180.000000       14.562774         2    ;  uncertainty k = 0.162643
         3         2         8         7     9        0.000000        0.077028         3    ;  uncertainty k = 0.451623
         3         2         8         7     9      180.000000        1.191353         4    ;  uncertainty k = 0.326638
         3         4         5        35     9        0.000000        7.881646         1    ;  uncertainty k = 0.722578
         3         4         5        35     9      180.000000        7.674614         2    ;  uncertainty k = 0.341114
         3         4         5        35     9        0.000000        1.320156         3    ;  uncertainty k = 0.360479
         3         4         5        35     9      180.000000        0.006944         4    ;  uncertainty k = 0.178741
         3         4         6         7     9        0.000000       -0.405800         1    ;  uncertainty k = 1.188415
         3         4         6         7     9      180.000000       11.818464         2    ;  uncertainty k = 0.276353
         3         4         6         7     9        0.000000        0.142980         3    ;  uncertainty k = 0.522961
         3         4         6         7     9      180.000000        1.051668         4    ;  uncertainty k = 0.418790
         4         3         2         8     9        0.000000       -0.161106         1    ;  uncertainty k = 0.523726
         4         3         2         8     9      180.000000       13.519441         2    ;  uncertainty k = 0.353335
         4         3         2         8     9        0.000000       -1.593353         3    ;  uncertainty k = 0.787639
         4         3         2         8     9      180.000000        0.913596         4    ;  uncertainty k = 0.171549
         4         6         7         8     9        0.000000       -0.041855         1    ;  uncertainty k = 0.184100
         4         6         7         8     9      180.000000        9.530851         2    ;  uncertainty k = 0.557802
         4         6         7         8     9        0.000000        0.835433         3    ;  uncertainty k = 0.427818
         4         6         7         8     9      180.000000        0.780999         4    ;  uncertainty k = 0.136396
         4         6         7         9     9        0.000000        0.668771         1    ;  uncertainty k = 0.793725
         4         6         7         9     9      180.000000       11.371115         2    ;  uncertainty k = 0.448355
         4         6         7         9     9        0.000000        1.586802         3    ;  uncertainty k = 0.367836
         4         6         7         9     9      180.000000        0.930190         4    ;  uncertainty k = 0.261942
         5         4         3        34     9        0.000000        0.007740         1    ;  uncertainty k = 0.360095
         5         4         3        34     9      180.000000        6.247709         2    ;  uncertainty k = 0.471694
         5         4         3        34     9        0.000000        0.963674         3    ;  uncertainty k = 0.240567
         5         4         3        34     9      180.000000        0.788768         4    ;  uncertainty k = 0.227359
         5         4         6         7     9        0.000000        0.175998         1    ;  uncertainty k = 1.546202
         5         4         6         7     9      180.000000       14.764591         2    ;  uncertainty k = 0.353103
         5         4         6         7     9        0.000000        2.258398         3    ;  uncertainty k = 0.368684
         5         4         6         7     9      180.000000        1.658158         4    ;  uncertainty k = 0.404026
         6         4         3        34     9        0.000000        0.125054         1    ;  uncertainty k = 0.537782
         6         4         3        34     9      180.000000        6.818742         2    ;  uncertainty k = 0.768054
         6         4         3        34     9        0.000000        0.973995         3    ;  uncertainty k = 0.451130
         6         4         3        34     9      180.000000        1.283699         4    ;  uncertainty k = 0.163980
         6         4         5        35     9        0.000000       13.393206         1    ;  uncertainty k = 0.389762
         6         4         5        35     9      180.000000        7.360049         2    ;  uncertainty k = 0.541070
         6         4         5        35     9        0.000000        0.495189         3    ;  uncertainty k = 0.122983
         6         4         5        35     9      180.000000        0.183809         4    ;  uncertainty k = 0.213778
         6         7         9        10     9        0.000000        6.215167         1    ;  uncertainty k = 0.562295
         6         7         9        10     9      180.000000       12.364253         2    ;  uncertainty k = 0.130787
         6         7         9        10     9        0.000000        0.255607         3    ;  uncertainty k = 0.179481
         6         7         9        10     9      180.000000       -0.413601         4    ;  uncertainty k = 0.055215
         6         7         9        16     9        0.000000        6.215166         1    ;  uncertainty k = 0.562292
         6         7         9        16     9      180.000000       12.364252         2    ;  uncertainty k = 0.130788
         6         7         9        16     9        0.000000        0.255606         3    ;  uncertainty k = 0.179480
         6         7         9        16     9      180.000000       -0.413601         4    ;  uncertainty k = 0.055214
         7         9        10        11     9        0.000000       -5.356499         1    ;  uncertainty k = 1.978326
         7         9        10        11     9      180.000000        0.673591         2    ;  uncertainty k = 0.663648
         7         9        10        11     9        0.000000        0.770645         3    ;  uncertainty k = 0.288312
         7         9        10        11     9      180.000000        0.312375         4    ;  uncertainty k = 0.110929
         7         9        10        36     9        0.000000       -0.239223         1    ;  uncertainty k = 0.732620
         7         9        10        36     9      180.000000        0.972808         2    ;  uncertainty k = 0.521849
         7         9        10        36     9        0.000000        0.567506         3    ;  uncertainty k = 0.115649
         7         9        10        36     9      180.000000        0.379061         4    ;  uncertainty k = 0.098280
         7         9        10        37     9        0.000000       -0.239223         1    ;  uncertainty k = 0.732620
         7         9        10        37     9      180.000000        0.972808         2    ;  uncertainty k = 0.521849
         7         9        10        37     9        0.000000        0.567506         3    ;  uncertainty k = 0.115649
         7         9        10        37     9      180.000000        0.379061         4    ;  uncertainty k = 0.098280
         7         9        16        15     9        0.000000       -5.356496         1    ;  uncertainty k = 1.978323
         7         9        16        15     9      180.000000        0.673590         2    ;  uncertainty k = 0.663648
         7         9        16        15     9        0.000000        0.770645         3    ;  uncertainty k = 0.288312
         7         9        16        15     9      180.000000        0.312375         4    ;  uncertainty k = 0.110929
         7         9        16        44     9        0.000000       -0.239223         1    ;  uncertainty k = 0.732618
         7         9        16        44     9      180.000000        0.972809         2    ;  uncertainty k = 0.521849
         7         9        16        44     9        0.000000        0.567506         3    ;  uncertainty k = 0.115649
         7         9        16        44     9      180.000000        0.379061         4    ;  uncertainty k = 0.098280
         7         9        16        45     9        0.000000       -0.239223         1    ;  uncertainty k = 0.732618
         7         9        16        45     9      180.000000        0.972809         2    ;  uncertainty k = 0.521849
         7         9        16        45     9        0.000000        0.567506         3    ;  uncertainty k = 0.115649
         7         9        16        45     9      180.000000        0.379061         4    ;  uncertainty k = 0.098280
         8         2         1        31     9        0.000000        0.517174         1    ;  uncertainty k = 0.305025
         8         2         1        31     9      180.000000        3.701432         2    ;  uncertainty k = 0.119838
         8         2         1        31     9        0.000000        0.518565         3    ;  uncertainty k = 0.062645
         8         2         1        31     9      180.000000        0.282109         4    ;  uncertainty k = 0.044797
         8         2         1        32     9        0.000000        0.517174         1    ;  uncertainty k = 0.305025
         8         2         1        32     9      180.000000        3.701432         2    ;  uncertainty k = 0.119838
         8         2         1        32     9        0.000000        0.518565         3    ;  uncertainty k = 0.062645
         8         2         1        32     9      180.000000        0.282109         4    ;  uncertainty k = 0.044797
         8         2         1        33     9        0.000000        0.517174         1    ;  uncertainty k = 0.305025
         8         2         1        33     9      180.000000        3.701432         2    ;  uncertainty k = 0.119838
         8         2         1        33     9        0.000000        0.518565         3    ;  uncertainty k = 0.062645
         8         2         1        33     9      180.000000        0.282109         4    ;  uncertainty k = 0.044797
         8         2         3        34     9        0.000000        0.354850         1    ;  uncertainty k = 0.542213
         8         2         3        34     9      180.000000        8.748891         2    ;  uncertainty k = 0.417648
         8         2         3        34     9        0.000000        1.299510         3    ;  uncertainty k = 0.301575
         8         2         3        34     9      180.000000        1.683032         4    ;  uncertainty k = 0.089794
         8         7         9        10     9        0.000000        5.156327         1    ;  uncertainty k = 0.544677
         8         7         9        10     9      180.000000       12.146910         2    ;  uncertainty k = 0.180598
         8         7         9        10     9        0.000000        0.155172         3    ;  uncertainty k = 0.174662
         8         7         9        10     9      180.000000       -0.362834         4    ;  uncertainty k = 0.090069
         8         7         9        16     9        0.000000        5.156326         1    ;  uncertainty k = 0.544680
         8         7         9        16     9      180.000000       12.146910         2    ;  uncertainty k = 0.180598
         8         7         9        16     9        0.000000        0.155172         3    ;  uncertainty k = 0.174662
         8         7         9        16     9      180.000000       -0.362834         4    ;  uncertainty k = 0.090069
         9        10        11        12     9        0.000000       -1.981827         1    ;  uncertainty k = 1.100824
         9        10        11        12     9      180.000000        0.974874         2    ;  uncertainty k = 0.869783
         9        10        11        12     9        0.000000        1.650528         3    ;  uncertainty k = 0.386814
         9        10        11        12     9      180.000000       -0.170576         4    ;  uncertainty k = 0.234248
         9        10        11        15     9        0.000000       -0.233298         1    ;  uncertainty k = 1.676281
         9        10        11        15     9      180.000000        6.154010         2    ;  uncertainty k = 1.118509
         9        10        11        15     9        0.000000        0.670988         3    ;  uncertainty k = 0.340936
         9        10        11        15     9      180.000000       -1.481872         4    ;  uncertainty k = 0.503620
         9        10        11        38     9        0.000000        0.586045         1    ;  uncertainty k = 0.852770
         9        10        11        38     9      180.000000        1.306757         2    ;  uncertainty k = 0.491981
         9        10        11        38     9        0.000000        1.172581         3    ;  uncertainty k = 0.229224
         9        10        11        38     9      180.000000       -0.073850         4    ;  uncertainty k = 0.181925
         9        16        15        11     9        0.000000       -0.233298         1    ;  uncertainty k = 1.676281
         9        16        15        11     9      180.000000        6.154011         2    ;  uncertainty k = 1.118510
         9        16        15        11     9        0.000000        0.670987         3    ;  uncertainty k = 0.340935
         9        16        15        11     9      180.000000       -1.481872         4    ;  uncertainty k = 0.503620
         9        16        15        14     9        0.000000       -1.981829         1    ;  uncertainty k = 1.100822
         9        16        15        14     9      180.000000        0.974873         2    ;  uncertainty k = 0.869781
         9        16        15        14     9        0.000000        1.650527         3    ;  uncertainty k = 0.386814
         9        16        15        14     9      180.000000       -0.170576         4    ;  uncertainty k = 0.234248
         9        16        15        43     9        0.000000        0.586046         1    ;  uncertainty k = 0.852770
         9        16        15        43     9      180.000000        1.306755         2    ;  uncertainty k = 0.491982
         9        16        15        43     9        0.000000        1.172581         3    ;  uncertainty k = 0.229224
         9        16        15        43     9      180.000000       -0.073849         4    ;  uncertainty k = 0.181925
        10         9        16        15     9        0.000000        0.440830         1    ;  uncertainty k = 1.044505
        10         9        16        15     9      180.000000        1.404592         2    ;  uncertainty k = 1.153028
        10         9        16        15     9        0.000000        0.875965         3    ;  uncertainty k = 0.350221
        10         9        16        15     9      180.000000        0.024695         4    ;  uncertainty k = 0.167541
        10         9        16        44     9        0.000000       -2.076062         1    ;  uncertainty k = 0.722877
        10         9        16        44     9      180.000000        1.290566         2    ;  uncertainty k = 0.405736
        10         9        16        44     9        0.000000        1.141879         3    ;  uncertainty k = 0.081080
        10         9        16        44     9      180.000000        0.252847         4    ;  uncertainty k = 0.123131
        10         9        16        45     9        0.000000       -2.076062         1    ;  uncertainty k = 0.722877
        10         9        16        45     9      180.000000        1.290566         2    ;  uncertainty k = 0.405736
        10         9        16        45     9        0.000000        1.141879         3    ;  uncertainty k = 0.081080
        10         9        16        45     9      180.000000        0.252847         4    ;  uncertainty k = 0.123131
        10        11        12        13     9        0.000000       -2.607420         1    ;  uncertainty k = 0.995424
        10        11        12        13     9      180.000000        0.022076         2    ;  uncertainty k = 0.727033
        10        11        12        13     9        0.000000        1.612970         3    ;  uncertainty k = 0.235291
        10        11        12        13     9      180.000000       -0.185713         4    ;  uncertainty k = 0.112586
        10        11        12        39     9        0.000000       -0.498818         1    ;  uncertainty k = 0.107247
        10        11        12        39     9      180.000000       -0.409706         2    ;  uncertainty k = 0.197166
        10        11        12        39     9        0.000000        0.564543         3    ;  uncertainty k = 0.186998
        10        11        12        39     9      180.000000       -0.072177         4    ;  uncertainty k = 0.062323
        10        11        12        40     9        0.000000       -0.498818         1    ;  uncertainty k = 0.107247
        10        11        12        40     9      180.000000       -0.409706         2    ;  uncertainty k = 0.197166
        10        11        12        40     9        0.000000        0.564543         3    ;  uncertainty k = 0.186998
        10        11        12        40     9      180.000000       -0.072177         4    ;  uncertainty k = 0.062323
        10        11        15        14     9        0.000000       -3.847150         1    ;  uncertainty k = 0.842081
        10        11        15        14     9      180.000000        0.994502         2    ;  uncertainty k = 1.017626
        10        11        15        14     9        0.000000        1.189094         3    ;  uncertainty k = 0.581588
        10        11        15        14     9      180.000000       -0.416044         4    ;  uncertainty k = 0.334399
        10        11        15        16     9        0.000000       -3.896618         1    ;  uncertainty k = 1.087275
        10        11        15        16     9      180.000000        1.035025         2    ;  uncertainty k = 1.026286
        10        11        15        16     9        0.000000        1.207838         3    ;  uncertainty k = 0.671623
        10        11        15        16     9      180.000000       -0.436931         4    ;  uncertainty k = 0.343366
        10        11        15        43     9        0.000000       -1.223112         1    ;  uncertainty k = 0.611377
        10        11        15        43     9      180.000000        0.489634         2    ;  uncertainty k = 0.414978
        10        11        15        43     9        0.000000        0.997353         3    ;  uncertainty k = 0.241670
        10        11        15        43     9      180.000000        0.066778         4    ;  uncertainty k = 0.087125
        11        10         9        16     9        0.000000        0.440830         1    ;  uncertainty k = 1.044507
        11        10         9        16     9      180.000000        1.404593         2    ;  uncertainty k = 1.153029
        11        10         9        16     9        0.000000        0.875965         3    ;  uncertainty k = 0.350221
        11        10         9        16     9      180.000000        0.024695         4    ;  uncertainty k = 0.167541
        11        12        13        14     9        0.000000       -0.578347         1    ;  uncertainty k = 0.919747
        11        12        13        14     9      180.000000        0.242792         2    ;  uncertainty k = 0.701024
        11        12        13        14     9        0.000000        0.797027         3    ;  uncertainty k = 0.218418
        11        12        13        14     9      180.000000        0.154107         4    ;  uncertainty k = 0.246781
        11        12        13        17     9        0.000000       -0.209381         1    ;  uncertainty k = 0.966461
        11        12        13        17     9      180.000000       -0.541701         2    ;  uncertainty k = 0.373893
        11        12        13        17     9        0.000000        0.202801         3    ;  uncertainty k = 0.362931
        11        12        13        17     9      180.000000        0.702312         4    ;  uncertainty k = 0.132281
        11        15        14        13     9        0.000000       -0.736764         1    ;  uncertainty k = 0.633515
        11        15        14        13     9      180.000000        6.025412         2    ;  uncertainty k = 1.000861
        11        15        14        13     9        0.000000        0.435197         3    ;  uncertainty k = 0.297546
        11        15        14        13     9      180.000000       -1.170163         4    ;  uncertainty k = 0.204855
        11        15        14        41     9        0.000000        0.480411         1    ;  uncertainty k = 0.492791
        11        15        14        41     9      180.000000       -1.104496         2    ;  uncertainty k = 0.672329
        11        15        14        41     9        0.000000       -0.270073         3    ;  uncertainty k = 0.170671
        11        15        14        41     9      180.000000       -0.013160         4    ;  uncertainty k = 0.174221
        11        15        14        42     9        0.000000        0.480411         1    ;  uncertainty k = 0.492791
        11        15        14        42     9      180.000000       -1.104496         2    ;  uncertainty k = 0.672329
        11        15        14        42     9        0.000000       -0.270073         3    ;  uncertainty k = 0.170671
        11        15        14        42     9      180.000000       -0.013160         4    ;  uncertainty k = 0.174221
        11        15        16        44     9        0.000000        0.646621         1    ;  uncertainty k = 0.517783
        11        15        16        44     9      180.000000       -1.099688         2    ;  uncertainty k = 0.743824
        11        15        16        44     9        0.000000       -0.334779         3    ;  uncertainty k = 0.213643
        11        15        16        44     9      180.000000       -0.018734         4    ;  uncertainty k = 0.206092
        11        15        16        45     9        0.000000        0.646621         1    ;  uncertainty k = 0.517783
        11        15        16        45     9      180.000000       -1.099688         2    ;  uncertainty k = 0.743824
        11        15        16        45     9        0.000000       -0.334779         3    ;  uncertainty k = 0.213643
        11        15        16        45     9      180.000000       -0.018734         4    ;  uncertainty k = 0.206092
        12        11        10        36     9        0.000000       -0.670734         1    ;  uncertainty k = 0.233995
        12        11        10        36     9      180.000000       -0.386310         2    ;  uncertainty k = 0.258590
        12        11        10        36     9        0.000000        0.557637         3    ;  uncertainty k = 0.179621
        12        11        10        36     9      180.000000       -0.081826         4    ;  uncertainty k = 0.095492
        12        11        10        37     9        0.000000       -0.670734         1    ;  uncertainty k = 0.233995
        12        11        10        37     9      180.000000       -0.386310         2    ;  uncertainty k = 0.258590
        12        11        10        37     9        0.000000        0.557637         3    ;  uncertainty k = 0.179621
        12        11        10        37     9      180.000000       -0.081826         4    ;  uncertainty k = 0.095492
        12        11        15        14     9        0.000000       -3.717091         1    ;  uncertainty k = 0.646014
        12        11        15        14     9      180.000000        0.952705         2    ;  uncertainty k = 0.984304
        12        11        15        14     9        0.000000        1.178983         3    ;  uncertainty k = 0.499657
        12        11        15        14     9      180.000000       -0.410261         4    ;  uncertainty k = 0.338854
        12        11        15        16     9        0.000000       -3.847151         1    ;  uncertainty k = 0.842082
        12        11        15        16     9      180.000000        0.994504         2    ;  uncertainty k = 1.017625
        12        11        15        16     9        0.000000        1.189094         3    ;  uncertainty k = 0.581588
        12        11        15        16     9      180.000000       -0.416044         4    ;  uncertainty k = 0.334399
        12        11        15        43     9        0.000000       -1.291634         1    ;  uncertainty k = 0.560343
        12        11        15        43     9      180.000000        0.594321         2    ;  uncertainty k = 0.368266
        12        11        15        43     9        0.000000        1.030260         3    ;  uncertainty k = 0.246250
        12        11        15        43     9      180.000000        0.081405         4    ;  uncertainty k = 0.059901
        12        13        14        15     9        0.000000       -0.578347         1    ;  uncertainty k = 0.919747
        12        13        14        15     9      180.000000        0.242792         2    ;  uncertainty k = 0.701025
        12        13        14        15     9        0.000000        0.797027         3    ;  uncertainty k = 0.218419
        12        13        14        15     9      180.000000        0.154107         4    ;  uncertainty k = 0.246781
        12        13        14        41     9        0.000000       -1.810377         1    ;  uncertainty k = 0.576097
        12        13        14        41     9      180.000000        1.086382         2    ;  uncertainty k = 0.426528
        12        13        14        41     9        0.000000        1.250141         3    ;  uncertainty k = 0.136647
        12        13        14        41     9      180.000000        0.301768         4    ;  uncertainty k = 0.117464
        12        13        14        42     9        0.000000       -1.810377         1    ;  uncertainty k = 0.576097
        12        13        14        42     9      180.000000        1.086382         2    ;  uncertainty k = 0.426528
        12        13        14        42     9        0.000000        1.250141         3    ;  uncertainty k = 0.136647
        12        13        14        42     9      180.000000        0.301768         4    ;  uncertainty k = 0.117464
        12        13        17        18     9        0.000000        6.357003         1    ;  uncertainty k = 0.547606
        12        13        17        18     9      180.000000       16.962734         2    ;  uncertainty k = 0.212954
        12        13        17        18     9        0.000000        0.267170         3    ;  uncertainty k = 0.202910
        12        13        17        18     9      180.000000       -1.190649         4    ;  uncertainty k = 0.124612
        12        13        17        19     9        0.000000        3.407849         1    ;  uncertainty k = 1.339110
        12        13        17        19     9      180.000000        8.996075         2    ;  uncertainty k = 0.412445
        12        13        17        19     9        0.000000        1.595044         3    ;  uncertainty k = 0.230309
        12        13        17        19     9      180.000000       -0.020267         4    ;  uncertainty k = 0.371981
        13        12        11        15     9        0.000000       -0.736762         1    ;  uncertainty k = 0.633517
        13        12        11        15     9      180.000000        6.025413         2    ;  uncertainty k = 1.000861
        13        12        11        15     9        0.000000        0.435196         3    ;  uncertainty k = 0.297545
        13        12        11        15     9      180.000000       -1.170163         4    ;  uncertainty k = 0.204856
        13        12        11        38     9        0.000000        0.123161         1    ;  uncertainty k = 0.632773
        13        12        11        38     9      180.000000        0.836162         2    ;  uncertainty k = 0.434791
        13        12        11        38     9        0.000000        1.098159         3    ;  uncertainty k = 0.161086
        13        12        11        38     9      180.000000       -0.066245         4    ;  uncertainty k = 0.104331
        13        14        15        16     9        0.000000       -2.607419         1    ;  uncertainty k = 0.995424
        13        14        15        16     9      180.000000        0.022076         2    ;  uncertainty k = 0.727033
        13        14        15        16     9        0.000000        1.612970         3    ;  uncertainty k = 0.235290
        13        14        15        16     9      180.000000       -0.185713         4    ;  uncertainty k = 0.112586
        13        14        15        43     9        0.000000        0.123160         1    ;  uncertainty k = 0.632774
        13        14        15        43     9      180.000000        0.836161         2    ;  uncertainty k = 0.434791
        13        14        15        43     9        0.000000        1.098159         3    ;  uncertainty k = 0.161086
        13        14        15        43     9      180.000000       -0.066245         4    ;  uncertainty k = 0.104331
        13        17        19        20     9        0.000000        1.851367         1    ;  uncertainty k = 1.259576
        13        17        19        20     9      180.000000        5.752965         2    ;  uncertainty k = 0.175508
        13        17        19        20     9        0.000000        0.162215         3    ;  uncertainty k = 0.318225
        13        17        19        20     9      180.000000        0.484794         4    ;  uncertainty k = 0.155871
        13        17        19        25     9        0.000000        3.709916         1    ;  uncertainty k = 1.132205
        13        17        19        25     9      180.000000        5.907216         2    ;  uncertainty k = 0.295098
        13        17        19        25     9        0.000000        0.162296         3    ;  uncertainty k = 0.106376
        13        17        19        25     9      180.000000        0.490410         4    ;  uncertainty k = 0.140372
        14        13        12        39     9        0.000000       -1.810377         1    ;  uncertainty k = 0.576098
        14        13        12        39     9      180.000000        1.086382         2    ;  uncertainty k = 0.426526
        14        13        12        39     9        0.000000        1.250141         3    ;  uncertainty k = 0.136647
        14        13        12        39     9      180.000000        0.301768         4    ;  uncertainty k = 0.117464
        14        13        12        40     9        0.000000       -1.810377         1    ;  uncertainty k = 0.576098
        14        13        12        40     9      180.000000        1.086382         2    ;  uncertainty k = 0.426526
        14        13        12        40     9        0.000000        1.250141         3    ;  uncertainty k = 0.136647
        14        13        12        40     9      180.000000        0.301768         4    ;  uncertainty k = 0.117464
        14        13        17        18     9        0.000000        6.357001         1    ;  uncertainty k = 0.547606
        14        13        17        18     9      180.000000       16.962734         2    ;  uncertainty k = 0.212955
        14        13        17        18     9        0.000000        0.267170         3    ;  uncertainty k = 0.202910
        14        13        17        18     9      180.000000       -1.190649         4    ;  uncertainty k = 0.124611
        14        13        17        19     9        0.000000        3.407847         1    ;  uncertainty k = 1.339110
        14        13        17        19     9      180.000000        8.996074         2    ;  uncertainty k = 0.412445
        14        13        17        19     9        0.000000        1.595043         3    ;  uncertainty k = 0.230310
        14        13        17        19     9      180.000000       -0.020268         4    ;  uncertainty k = 0.371981
        14        15        11        38     9        0.000000       -1.291633         1    ;  uncertainty k = 0.560343
        14        15        11        38     9      180.000000        0.594321         2    ;  uncertainty k = 0.368268
        14        15        11        38     9        0.000000        1.030260         3    ;  uncertainty k = 0.246250
        14        15        11        38     9      180.000000        0.081405         4    ;  uncertainty k = 0.059900
        14        15        16        44     9        0.000000       -0.670733         1    ;  uncertainty k = 0.233996
        14        15        16        44     9      180.000000       -0.386309         2    ;  uncertainty k = 0.258591
        14        15        16        44     9        0.000000        0.557638         3    ;  uncertainty k = 0.179621
        14        15        16        44     9      180.000000       -0.081826         4    ;  uncertainty k = 0.095492
        14        15        16        45     9        0.000000       -0.670733         1    ;  uncertainty k = 0.233996
        14        15        16        45     9      180.000000       -0.386309         2    ;  uncertainty k = 0.258591
        14        15        16        45     9        0.000000        0.557638         3    ;  uncertainty k = 0.179621
        14        15        16        45     9      180.000000       -0.081826         4    ;  uncertainty k = 0.095492
        15        11        10        36     9        0.000000        0.646621         1    ;  uncertainty k = 0.517781
        15        11        10        36     9      180.000000       -1.099689         2    ;  uncertainty k = 0.743823
        15        11        10        36     9        0.000000       -0.334778         3    ;  uncertainty k = 0.213644
        15        11        10        36     9      180.000000       -0.018734         4    ;  uncertainty k = 0.206091
        15        11        10        37     9        0.000000        0.646621         1    ;  uncertainty k = 0.517781
        15        11        10        37     9      180.000000       -1.099689         2    ;  uncertainty k = 0.743823
        15        11        10        37     9        0.000000       -0.334778         3    ;  uncertainty k = 0.213644
        15        11        10        37     9      180.000000       -0.018734         4    ;  uncertainty k = 0.206091
        15        11        12        39     9        0.000000        0.480411         1    ;  uncertainty k = 0.492791
        15        11        12        39     9      180.000000       -1.104495         2    ;  uncertainty k = 0.672328
        15        11        12        39     9        0.000000       -0.270073         3    ;  uncertainty k = 0.170671
        15        11        12        39     9      180.000000       -0.013161         4    ;  uncertainty k = 0.174221
        15        11        12        40     9        0.000000        0.480411         1    ;  uncertainty k = 0.492791
        15        11        12        40     9      180.000000       -1.104495         2    ;  uncertainty k = 0.672328
        15        11        12        40     9        0.000000       -0.270073         3    ;  uncertainty k = 0.170671
        15        11        12        40     9      180.000000       -0.013161         4    ;  uncertainty k = 0.174221
        15        14        13        17     9        0.000000       -0.209380         1    ;  uncertainty k = 0.966459
        15        14        13        17     9      180.000000       -0.541701         2    ;  uncertainty k = 0.373894
        15        14        13        17     9        0.000000        0.202801         3    ;  uncertainty k = 0.362931
        15        14        13        17     9      180.000000        0.702311         4    ;  uncertainty k = 0.132281
        16         9        10        36     9        0.000000       -2.076062         1    ;  uncertainty k = 0.722877
        16         9        10        36     9      180.000000        1.290566         2    ;  uncertainty k = 0.405736
        16         9        10        36     9        0.000000        1.141879         3    ;  uncertainty k = 0.081081
        16         9        10        36     9      180.000000        0.252847         4    ;  uncertainty k = 0.123131
        16         9        10        37     9        0.000000       -2.076062         1    ;  uncertainty k = 0.722877
        16         9        10        37     9      180.000000        1.290566         2    ;  uncertainty k = 0.405736
        16         9        10        37     9        0.000000        1.141879         3    ;  uncertainty k = 0.081081
        16         9        10        37     9      180.000000        0.252847         4    ;  uncertainty k = 0.123131
        16        15        11        38     9        0.000000       -1.223110         1    ;  uncertainty k = 0.611378
        16        15        11        38     9      180.000000        0.489635         2    ;  uncertainty k = 0.414979
        16        15        11        38     9        0.000000        0.997353         3    ;  uncertainty k = 0.241669
        16        15        11        38     9      180.000000        0.066778         4    ;  uncertainty k = 0.087125
        16        15        14        41     9        0.000000       -0.498818         1    ;  uncertainty k = 0.107248
        16        15        14        41     9      180.000000       -0.409705         2    ;  uncertainty k = 0.197166
        16        15        14        41     9        0.000000        0.564544         3    ;  uncertainty k = 0.186998
        16        15        14        41     9      180.000000       -0.072177         4    ;  uncertainty k = 0.062323
        16        15        14        42     9        0.000000       -0.498818         1    ;  uncertainty k = 0.107248
        16        15        14        42     9      180.000000       -0.409705         2    ;  uncertainty k = 0.197166
        16        15        14        42     9        0.000000        0.564544         3    ;  uncertainty k = 0.186998
        16        15        14        42     9      180.000000       -0.072177         4    ;  uncertainty k = 0.062323
        17        13        12        39     9        0.000000        1.416105         1    ;  uncertainty k = 0.719804
        17        13        12        39     9      180.000000        0.065610         2    ;  uncertainty k = 0.093474
        17        13        12        39     9        0.000000        0.002232         3    ;  uncertainty k = 0.089343
        17        13        12        39     9      180.000000        0.277826         4    ;  uncertainty k = 0.071341
        17        13        12        40     9        0.000000        1.416105         1    ;  uncertainty k = 0.719804
        17        13        12        40     9      180.000000        0.065610         2    ;  uncertainty k = 0.093474
        17        13        12        40     9        0.000000        0.002232         3    ;  uncertainty k = 0.089343
        17        13        12        40     9      180.000000        0.277826         4    ;  uncertainty k = 0.071341
        17        13        14        41     9        0.000000        1.416105         1    ;  uncertainty k = 0.719804
        17        13        14        41     9      180.000000        0.065610         2    ;  uncertainty k = 0.093472
        17        13        14        41     9        0.000000        0.002232         3    ;  uncertainty k = 0.089343
        17        13        14        41     9      180.000000        0.277826         4    ;  uncertainty k = 0.071341
        17        13        14        42     9        0.000000        1.416105         1    ;  uncertainty k = 0.719804
        17        13        14        42     9      180.000000        0.065610         2    ;  uncertainty k = 0.093472
        17        13        14        42     9        0.000000        0.002232         3    ;  uncertainty k = 0.089343
        17        13        14        42     9      180.000000        0.277826         4    ;  uncertainty k = 0.071341
        17        19        20        21     9        0.000000        0.086680         1    ;  uncertainty k = 0.322670
        17        19        20        21     9      180.000000       11.407953         2    ;  uncertainty k = 0.599565
        17        19        20        21     9        0.000000        1.385161         3    ;  uncertainty k = 0.187005
        17        19        20        21     9      180.000000        1.483635         4    ;  uncertainty k = 0.318096
        17        19        20        22     9        0.000000        0.114462         1    ;  uncertainty k = 0.659063
        17        19        20        22     9      180.000000        6.312817         2    ;  uncertainty k = 0.577136
        17        19        20        22     9        0.000000        1.356865         3    ;  uncertainty k = 0.282275
        17        19        20        22     9      180.000000        1.940646         4    ;  uncertainty k = 0.196893
        17        19        25        24     9        0.000000        0.266109         1    ;  uncertainty k = 0.262230
        17        19        25        24     9      180.000000        6.791976         2    ;  uncertainty k = 0.556220
        17        19        25        24     9        0.000000        1.305735         3    ;  uncertainty k = 0.332052
        17        19        25        24     9      180.000000        1.750369         4    ;  uncertainty k = 0.249436
        17        19        25        26     9        0.000000       -0.079088         1    ;  uncertainty k = 0.890587
        17        19        25        26     9      180.000000       10.037557         2    ;  uncertainty k = 0.622174
        17        19        25        26     9        0.000000        1.315712         3    ;  uncertainty k = 0.504290
        17        19        25        26     9      180.000000        1.286094         4    ;  uncertainty k = 0.361801
        18        17        19        20     9        0.000000       -1.928785         1    ;  uncertainty k = 0.969843
        18        17        19        20     9      180.000000        5.038791         2    ;  uncertainty k = 0.443316
        18        17        19        20     9        0.000000        0.869540         3    ;  uncertainty k = 0.424298
        18        17        19        20     9      180.000000        0.459984         4    ;  uncertainty k = 0.229979
        18        17        19        25     9        0.000000       -3.997731         1    ;  uncertainty k = 0.906468
        18        17        19        25     9      180.000000        5.945518         2    ;  uncertainty k = 0.542758
        18        17        19        25     9        0.000000        0.551178         3    ;  uncertainty k = 0.549645
        18        17        19        25     9      180.000000        0.513462         4    ;  uncertainty k = 0.329406
        19        20        22        23     9        0.000000        0.011529         1    ;  uncertainty k = 0.194930
        19        20        22        23     9      180.000000        8.787238         2    ;  uncertainty k = 0.361867
        19        20        22        23     9        0.000000        0.106727         3    ;  uncertainty k = 0.344316
        19        20        22        23     9      180.000000        1.205900         4    ;  uncertainty k = 0.276948
        19        20        22        46     9        0.000000       -0.168918         1    ;  uncertainty k = 0.390695
        19        20        22        46     9      180.000000        5.695522         2    ;  uncertainty k = 0.674905
        19        20        22        46     9        0.000000        1.129293         3    ;  uncertainty k = 0.356557
        19        20        22        46     9      180.000000        1.505167         4    ;  uncertainty k = 0.216214
        19        25        24        23     9        0.000000       -0.242508         1    ;  uncertainty k = 0.315737
        19        25        24        23     9      180.000000        9.681246         2    ;  uncertainty k = 0.496020
        19        25        24        23     9        0.000000        0.240132         3    ;  uncertainty k = 0.161668
        19        25        24        23     9      180.000000        1.271249         4    ;  uncertainty k = 0.330409
        19        25        24        48     9        0.000000       -0.007148         1    ;  uncertainty k = 0.345797
        19        25        24        48     9      180.000000        6.393420         2    ;  uncertainty k = 0.363299
        19        25        24        48     9        0.000000        1.235598         3    ;  uncertainty k = 0.195907
        19        25        24        48     9      180.000000        1.608512         4    ;  uncertainty k = 0.191460
        19        25        26        27     9        0.000000       -1.535069         1    ;  uncertainty k = 0.563416
        19        25        26        27     9      180.000000        4.499715         2    ;  uncertainty k = 0.535585
        19        25        26        27     9        0.000000        0.637687         3    ;  uncertainty k = 0.351002
        19        25        26        27     9      180.000000       -0.090463         4    ;  uncertainty k = 0.183190
        19        25        26        30     9        0.000000       -1.535069         1    ;  uncertainty k = 0.563416
        19        25        26        30     9      180.000000        4.499715         2    ;  uncertainty k = 0.535585
        19        25        26        30     9        0.000000        0.637687         3    ;  uncertainty k = 0.351002
        19        25        26        30     9      180.000000       -0.090463         4    ;  uncertainty k = 0.183190
        20        19        25        24     9        0.000000       -0.242351         1    ;  uncertainty k = 0.420152
        20        19        25        24     9      180.000000        6.983637         2    ;  uncertainty k = 0.869640
        20        19        25        24     9        0.000000        0.325219         3    ;  uncertainty k = 0.349953
        20        19        25        24     9      180.000000        1.307286         4    ;  uncertainty k = 0.335099
        20        19        25        26     9        0.000000        0.337460         1    ;  uncertainty k = 0.391009
        20        19        25        26     9      180.000000       10.376661         2    ;  uncertainty k = 0.372710
        20        19        25        26     9        0.000000        1.330823         3    ;  uncertainty k = 0.417773
        20        19        25        26     9      180.000000        1.431413         4    ;  uncertainty k = 0.199546
        20        22        23        24     9        0.000000       -0.033963         1    ;  uncertainty k = 0.110226
        20        22        23        24     9      180.000000       13.984025         2    ;  uncertainty k = 0.340845
        20        22        23        24     9        0.000000       -1.042557         3    ;  uncertainty k = 0.357764
        20        22        23        24     9      180.000000        0.802609         4    ;  uncertainty k = 0.247483
        20        22        23        47     9        0.000000       -0.104379         1    ;  uncertainty k = 0.141872
        20        22        23        47     9      180.000000        7.264410         2    ;  uncertainty k = 0.340044
        20        22        23        47     9        0.000000        1.287730         3    ;  uncertainty k = 0.202339
        20        22        23        47     9      180.000000        1.653500         4    ;  uncertainty k = 0.150967
        21        20        19        25     9        0.000000        0.033254         1    ;  uncertainty k = 0.304862
        21        20        19        25     9      180.000000       11.302610         2    ;  uncertainty k = 0.302059
        21        20        19        25     9        0.000000        1.679241         3    ;  uncertainty k = 0.164696
        21        20        19        25     9      180.000000        1.555515         4    ;  uncertainty k = 0.157671
        21        20        22        23     9        0.000000       -0.080232         1    ;  uncertainty k = 0.461474
        21        20        22        23     9      180.000000       13.203682         2    ;  uncertainty k = 0.340325
        21        20        22        23     9        0.000000        1.295972         3    ;  uncertainty k = 0.165134
        21        20        22        23     9      180.000000        1.523069         4    ;  uncertainty k = 0.233966
        21        20        22        46     9        0.000000       -0.128834         1    ;  uncertainty k = 0.456012
        21        20        22        46     9      180.000000        9.556552         2    ;  uncertainty k = 0.491147
        21        20        22        46     9        0.000000        0.767278         3    ;  uncertainty k = 0.273034
        21        20        22        46     9      180.000000        1.024642         4    ;  uncertainty k = 0.200947
        22        20        19        25     9        0.000000       -0.325541         1    ;  uncertainty k = 0.355388
        22        20        19        25     9      180.000000        6.052960         2    ;  uncertainty k = 0.864094
        22        20        19        25     9        0.000000        0.684668         3    ;  uncertainty k = 0.181781
        22        20        19        25     9      180.000000        1.492448         4    ;  uncertainty k = 0.353261
        22        23        24        25     9        0.000000       -0.096416         1    ;  uncertainty k = 0.180639
        22        23        24        25     9      180.000000       13.532949         2    ;  uncertainty k = 0.268821
        22        23        24        25     9        0.000000       -0.934273         3    ;  uncertainty k = 0.410646
        22        23        24        25     9      180.000000        0.824229         4    ;  uncertainty k = 0.239882
        22        23        24        48     9        0.000000        0.090918         1    ;  uncertainty k = 0.138952
        22        23        24        48     9      180.000000        7.803070         2    ;  uncertainty k = 0.340548
        22        23        24        48     9        0.000000        1.340932         3    ;  uncertainty k = 0.288750
        22        23        24        48     9      180.000000        1.895629         4    ;  uncertainty k = 0.190611
        23        24        25        26     9        0.000000        0.460449         1    ;  uncertainty k = 0.322983
        23        24        25        26     9      180.000000       11.387678         2    ;  uncertainty k = 0.346993
        23        24        25        26     9        0.000000        0.982542         3    ;  uncertainty k = 0.164036
        23        24        25        26     9      180.000000        1.624026         4    ;  uncertainty k = 0.138288
        24        23        22        46     9        0.000000        0.058868         1    ;  uncertainty k = 0.276257
        24        23        22        46     9      180.000000        7.716329         2    ;  uncertainty k = 0.326791
        24        23        22        46     9        0.000000        1.437490         3    ;  uncertainty k = 0.272563
        24        23        22        46     9      180.000000        1.759669         4    ;  uncertainty k = 0.126329
        24        25        26        27     9        0.000000        2.394481         1    ;  uncertainty k = 0.740964
        24        25        26        27     9      180.000000        4.329586         2    ;  uncertainty k = 0.263950
        24        25        26        27     9        0.000000        0.391713         3    ;  uncertainty k = 0.190597
        24        25        26        27     9      180.000000        0.083730         4    ;  uncertainty k = 0.150415
        24        25        26        30     9        0.000000        2.394481         1    ;  uncertainty k = 0.740964
        24        25        26        30     9      180.000000        4.329586         2    ;  uncertainty k = 0.263950
        24        25        26        30     9        0.000000        0.391713         3    ;  uncertainty k = 0.190597
        24        25        26        30     9      180.000000        0.083730         4    ;  uncertainty k = 0.150415
        25        24        23        47     9        0.000000       -0.010723         1    ;  uncertainty k = 0.237400
        25        24        23        47     9      180.000000        7.958978         2    ;  uncertainty k = 0.442749
        25        24        23        47     9        0.000000        1.209101         3    ;  uncertainty k = 0.164443
        25        24        23        47     9      180.000000        1.723739         4    ;  uncertainty k = 0.144208
        25        26        27        28     9        0.000000        0.797559         1    ;  uncertainty k = 2.309877
        25        26        27        28     9      180.000000       14.114446         2    ;  uncertainty k = 0.418682
        25        26        27        28     9        0.000000        1.402880         3    ;  uncertainty k = 0.442527
        25        26        27        28     9      180.000000        0.112613         4    ;  uncertainty k = 0.206946
        25        26        30        29     9        0.000000        0.797559         1    ;  uncertainty k = 2.309877
        25        26        30        29     9      180.000000       14.114446         2    ;  uncertainty k = 0.418682
        25        26        30        29     9        0.000000        1.402880         3    ;  uncertainty k = 0.442527
        25        26        30        29     9      180.000000        0.112613         4    ;  uncertainty k = 0.206946
        26        25        24        48     9        0.000000        0.135211         1    ;  uncertainty k = 0.398577
        26        25        24        48     9      180.000000        8.519176         2    ;  uncertainty k = 0.273746
        26        25        24        48     9        0.000000        0.803950         3    ;  uncertainty k = 0.224881
        26        25        24        48     9      180.000000        1.348903         4    ;  uncertainty k = 0.152778
        26        27        28        29     9        0.000000        0.015899         1    ;  uncertainty k = 0.518603
        26        27        28        29     9      180.000000       24.370143         2    ;  uncertainty k = 0.366584
        26        27        28        29     9        0.000000       -9.715998         3    ;  uncertainty k = 1.915613
        26        27        28        29     9      180.000000        2.426696         4    ;  uncertainty k = 0.655510
        26        27        28        49     9        0.000000        0.232294         1    ;  uncertainty k = 0.741580
        26        27        28        49     9      180.000000       22.028694         2    ;  uncertainty k = 0.487024
        26        27        28        49     9        0.000000        1.455895         3    ;  uncertainty k = 0.397708
        26        27        28        49     9      180.000000        1.220382         4    ;  uncertainty k = 0.604170
        26        30        29        28     9        0.000000        0.015899         1    ;  uncertainty k = 0.518603
        26        30        29        28     9      180.000000       24.370143         2    ;  uncertainty k = 0.366584
        26        30        29        28     9        0.000000       -9.715998         3    ;  uncertainty k = 1.915613
        26        30        29        28     9      180.000000        2.426696         4    ;  uncertainty k = 0.655510
        26        30        29        50     9        0.000000        0.232294         1    ;  uncertainty k = 0.741580
        26        30        29        50     9      180.000000       22.028694         2    ;  uncertainty k = 0.487024
        26        30        29        50     9        0.000000        1.455895         3    ;  uncertainty k = 0.397708
        26        30        29        50     9      180.000000        1.220382         4    ;  uncertainty k = 0.604170
        27        26        30        29     9        0.000000       -0.822391         1    ;  uncertainty k = 0.769863
        27        26        30        29     9      180.000000       22.038729         2    ;  uncertainty k = 0.271382
        27        26        30        29     9        0.000000       -8.305140         3    ;  uncertainty k = 1.269833
        27        26        30        29     9      180.000000        1.298759         4    ;  uncertainty k = 0.596553
        27        28        29        30     9        0.000000       -0.480158         1    ;  uncertainty k = 0.926462
        27        28        29        30     9      180.000000       16.735216         2    ;  uncertainty k = 1.309662
        27        28        29        30     9        0.000000      -12.155219         3    ;  uncertainty k = 1.939945
        27        28        29        30     9      180.000000        1.991293         4    ;  uncertainty k = 0.750423
        27        28        29        50     9        0.000000        0.154897         1    ;  uncertainty k = 0.970262
        27        28        29        50     9      180.000000       11.842300         2    ;  uncertainty k = 0.614370
        27        28        29        50     9        0.000000        0.922189         3    ;  uncertainty k = 0.757887
        27        28        29        50     9      180.000000        0.630945         4    ;  uncertainty k = 0.172002
        28        27        26        30     9        0.000000       -0.822391         1    ;  uncertainty k = 0.769863
        28        27        26        30     9      180.000000       22.038729         2    ;  uncertainty k = 0.271382
        28        27        26        30     9        0.000000       -8.305140         3    ;  uncertainty k = 1.269833
        28        27        26        30     9      180.000000        1.298759         4    ;  uncertainty k = 0.596553
        30        29        28        49     9        0.000000        0.154897         1    ;  uncertainty k = 0.970262
        30        29        28        49     9      180.000000       11.842300         2    ;  uncertainty k = 0.614370
        30        29        28        49     9        0.000000        0.922189         3    ;  uncertainty k = 0.757887
        30        29        28        49     9      180.000000        0.630945         4    ;  uncertainty k = 0.172002
        36        10        11        38     9        0.000000        0.359872         1    ;  uncertainty k = 0.316166
        36        10        11        38     9      180.000000       -0.360044         2    ;  uncertainty k = 0.197279
        36        10        11        38     9        0.000000        0.364903         3    ;  uncertainty k = 0.128583
        36        10        11        38     9      180.000000       -0.036803         4    ;  uncertainty k = 0.081429
        37        10        11        38     9        0.000000        0.359872         1    ;  uncertainty k = 0.316166
        37        10        11        38     9      180.000000       -0.360044         2    ;  uncertainty k = 0.197279
        37        10        11        38     9        0.000000        0.364903         3    ;  uncertainty k = 0.128583
        37        10        11        38     9      180.000000       -0.036803         4    ;  uncertainty k = 0.081429
        38        11        12        39     9        0.000000        0.423998         1    ;  uncertainty k = 0.297943
        38        11        12        39     9      180.000000       -0.322771         2    ;  uncertainty k = 0.253711
        38        11        12        39     9        0.000000        0.343158         3    ;  uncertainty k = 0.128710
        38        11        12        39     9      180.000000       -0.041305         4    ;  uncertainty k = 0.061986
        38        11        12        40     9        0.000000        0.423998         1    ;  uncertainty k = 0.297943
        38        11        12        40     9      180.000000       -0.322771         2    ;  uncertainty k = 0.253711
        38        11        12        40     9        0.000000        0.343158         3    ;  uncertainty k = 0.128710
        38        11        12        40     9      180.000000       -0.041305         4    ;  uncertainty k = 0.061986
        38        11        15        43     9        0.000000        3.534566         1    ;  uncertainty k = 1.183407
        38        11        15        43     9      180.000000       -0.219654         2    ;  uncertainty k = 0.641097
        38        11        15        43     9        0.000000        0.578188         3    ;  uncertainty k = 0.579178
        38        11        15        43     9      180.000000        0.212498         4    ;  uncertainty k = 0.291708
        41        14        15        43     9        0.000000        0.424000         1    ;  uncertainty k = 0.297943
        41        14        15        43     9      180.000000       -0.322771         2    ;  uncertainty k = 0.253710
        41        14        15        43     9        0.000000        0.343158         3    ;  uncertainty k = 0.128710
        41        14        15        43     9      180.000000       -0.041305         4    ;  uncertainty k = 0.061986
        42        14        15        43     9        0.000000        0.424000         1    ;  uncertainty k = 0.297943
        42        14        15        43     9      180.000000       -0.322771         2    ;  uncertainty k = 0.253710
        42        14        15        43     9        0.000000        0.343158         3    ;  uncertainty k = 0.128710
        42        14        15        43     9      180.000000       -0.041305         4    ;  uncertainty k = 0.061986
        43        15        16        44     9        0.000000        0.359873         1    ;  uncertainty k = 0.316165
        43        15        16        44     9      180.000000       -0.360044         2    ;  uncertainty k = 0.197281
        43        15        16        44     9        0.000000        0.364903         3    ;  uncertainty k = 0.128582
        43        15        16        44     9      180.000000       -0.036803         4    ;  uncertainty k = 0.081429
        43        15        16        45     9        0.000000        0.359873         1    ;  uncertainty k = 0.316165
        43        15        16        45     9      180.000000       -0.360044         2    ;  uncertainty k = 0.197281
        43        15        16        45     9        0.000000        0.364903         3    ;  uncertainty k = 0.128582
        43        15        16        45     9      180.000000       -0.036803         4    ;  uncertainty k = 0.081429
        46        22        23        47     9        0.000000       -0.020811         1    ;  uncertainty k = 0.168739
        46        22        23        47     9      180.000000        7.628630         2    ;  uncertainty k = 0.494067
        46        22        23        47     9        0.000000       -0.419007         3    ;  uncertainty k = 0.338955
        46        22        23        47     9      180.000000        0.009969         4    ;  uncertainty k = 0.203192
        47        23        24        48     9        0.000000        0.041837         1    ;  uncertainty k = 0.123335
        47        23        24        48     9      180.000000        7.941959         2    ;  uncertainty k = 0.372063
        47        23        24        48     9        0.000000       -0.460822         3    ;  uncertainty k = 0.327229
        47        23        24        48     9      180.000000        0.152785         4    ;  uncertainty k = 0.182743
        49        28        29        50     9        0.000000       -0.942648         1    ;  uncertainty k = 1.117582
        49        28        29        50     9      180.000000        4.272735         2    ;  uncertainty k = 0.760818
        49        28        29        50     9        0.000000        1.314863         3    ;  uncertainty k = 0.353594
        49        28        29        50     9      180.000000        0.150448         4    ;  uncertainty k = 0.159865

[ dihedrals ] ; impropers
;       ai        aj        ak        al funct           phase               k        pn
         2         1         3         8     4      180.000000       31.783438         2    ;  uncertainty k = 0.064142
         2         3         8         1     4      180.000000       31.783438         2    ;  uncertainty k = 0.064142
         2         8         1         3     4      180.000000       31.783438         2    ;  uncertainty k = 0.064142
         3         2         4        34     4      180.000000        0.448318         2    ;  uncertainty k = 0.656192
         3         4        34         2     4      180.000000        0.448318         2    ;  uncertainty k = 0.656192
         3        34         2         4     4      180.000000        0.448318         2    ;  uncertainty k = 0.656192
         4         3         5         6     4      180.000000       35.345783         2    ;  uncertainty k = 0.054057
         4         5         6         3     4      180.000000       35.345783         2    ;  uncertainty k = 0.054057
         4         6         3         5     4      180.000000       35.345783         2    ;  uncertainty k = 0.054057
         7         6         8         9     4      180.000000       42.886710         2    ;  uncertainty k = 0.066513
         7         8         9         6     4      180.000000       42.886710         2    ;  uncertainty k = 0.066513
         7         9         6         8     4      180.000000       42.886710         2    ;  uncertainty k = 0.066513
         9         7        10        16     4      180.000000        0.148693         2    ;  uncertainty k = 0.226352
         9        10        16         7     4      180.000000        0.148693         2    ;  uncertainty k = 0.226352
         9        16         7        10     4      180.000000        0.148693         2    ;  uncertainty k = 0.226352
        17        13        18        19     4      180.000000       52.212280         2    ;  uncertainty k = 0.071533
        17        18        19        13     4      180.000000       52.212280         2    ;  uncertainty k = 0.071533
        17        19        13        18     4      180.000000       52.212280         2    ;  uncertainty k = 0.071533
        19        17        20        25     4      180.000000        9.307072         2    ;  uncertainty k = 0.434424
        19        20        25        17     4      180.000000        9.307072         2    ;  uncertainty k = 0.434424
        19        25        17        20     4      180.000000        9.307072         2    ;  uncertainty k = 0.434424
        20        19        21        22     4      180.000000       15.115266         2    ;  uncertainty k = 0.210077
        20        21        22        19     4      180.000000       15.115266         2    ;  uncertainty k = 0.210077
        20        22        19        21     4      180.000000       15.115266         2    ;  uncertainty k = 0.210077
        22        20        23        46     4      180.000000        2.461870         2    ;  uncertainty k = 0.103991
        22        23        46        20     4      180.000000        2.461870         2    ;  uncertainty k = 0.103991
        22        46        20        23     4      180.000000        2.461870         2    ;  uncertainty k = 0.103991
        23        22        24        47     4      180.000000        4.937369         2    ;  uncertainty k = 0.112088
        23        24        47        22     4      180.000000        4.937369         2    ;  uncertainty k = 0.112088
        23        47        22        24     4      180.000000        4.937369         2    ;  uncertainty k = 0.112088
        24        23        25        48     4      180.000000        2.847064         2    ;  uncertainty k = 0.193191
        24        25        48        23     4      180.000000        2.847064         2    ;  uncertainty k = 0.193191
        24        48        23        25     4      180.000000        2.847064         2    ;  uncertainty k = 0.193191
        25        19        24        26     4      180.000000       12.584197         2    ;  uncertainty k = 0.129690
        25        24        26        19     4      180.000000       12.584197         2    ;  uncertainty k = 0.129690
        25        26        19        24     4      180.000000       12.584197         2    ;  uncertainty k = 0.129690
        28        27        29        49     4      180.000000        0.414726         2    ;  uncertainty k = 0.408832
        28        29        49        27     4      180.000000        0.414726         2    ;  uncertainty k = 0.408832
        28        49        27        29     4      180.000000        0.414726         2    ;  uncertainty k = 0.408832
        29        28        30        50     4      180.000000        0.414726         2    ;  uncertainty k = 0.408832
        29        30        50        28     4      180.000000        0.414726         2    ;  uncertainty k = 0.408832
        29        50        28        30     4      180.000000        0.414726         2    ;  uncertainty k = 0.408832

[ pairs ]
;       ai        aj funct
         1         4     1
         1         7     1
         1        34     1
         2         5     1
         2         6     1
         2         9     1
         3         7     1
         3        31     1
         3        32     1
         3        33     1
         3        35     1
         4         8     1
         4         9     1
         5         7     1
         5        34     1
         6        10     1
         6        16     1
         6        34     1
         6        35     1
         7        11     1
         7        15     1
         7        36     1
         7        37     1
         7        44     1
         7        45     1
         8        10     1
         8        16     1
         8        31     1
         8        32     1
         8        33     1
         8        34     1
         9        12     1
         9        14     1
         9        38     1
         9        43     1
        10        13     1
        10        14     1
        10        39     1
        10        40     1
        10        43     1
        10        44     1
        10        45     1
        11        17     1
        11        41     1
        11        42     1
        11        44     1
        11        45     1
        12        16     1
        12        18     1
        12        19     1
        12        36     1
        12        37     1
        12        41     1
        12        42     1
        12        43     1
        13        16     1
        13        20     1
        13        25     1
        13        38     1
        13        43     1
        14        18     1
        14        19     1
        14        38     1
        14        39     1
        14        40     1
        14        44     1
        14        45     1
        15        17     1
        15        36     1
        15        37     1
        15        39     1
        15        40     1
        16        36     1
        16        37     1
        16        38     1
        16        41     1
        16        42     1
        17        21     1
        17        22     1
        17        24     1
        17        26     1
        17        39     1
        17        40     1
        17        41     1
        17        42     1
        18        20     1
        18        25     1
        19        23     1
        19        27     1
        19        30     1
        19        46     1
        19        48     1
        20        24     1
        20        26     1
        20        47     1
        21        23     1
        21        25     1
        21        46     1
        22        25     1
        22        48     1
        23        26     1
        24        27     1
        24        30     1
        24        46     1
        25        28     1
        25        29     1
        25        47     1
        26        48     1
        26        49     1
        26        50     1
        27        50     1
        30        49     1
        36        38     1
        37        38     1
        38        39     1
        38        40     1
        38        43     1
        41        43     1
        42        43     1
        43        44     1
        43        45     1
        46        47     1
        47        48     1
        49        50     1
