; ITP file created by ByteFF-joint-25, 2025-07-14 11:28:31.790671

[ atomtypes ]
;name           bonded.type        at.num        mass        charge   ptype           sigma         epsilon
 c0bf                                   6      0.0000       0.00000       A     3.39773e-01     4.50930e-01    ;  uncertainty sigma = 0.000007, epsilon = 0.000592
 c1bf                                   6      0.0000       0.00000       A     3.31511e-01     4.13145e-01    ;  uncertainty sigma = 0.000011, epsilon = 0.000579
 c2bf                                   6      0.0000       0.00000       A     3.31523e-01     4.13243e-01    ;  uncertainty sigma = 0.000013, epsilon = 0.000737
 c3bf                                   6      0.0000       0.00000       A     3.31511e-01     4.13145e-01    ;  uncertainty sigma = 0.000011, epsilon = 0.000579
 c4bf                                   6      0.0000       0.00000       A     3.39773e-01     4.50930e-01    ;  uncertainty sigma = 0.000007, epsilon = 0.000592
 n5bf                                   7      0.0000       0.00000       A     3.38407e-01     3.93685e-01    ;  uncertainty sigma = 0.000013, epsilon = 0.000791
 c6bf                                   6      0.0000       0.00000       A     3.31545e-01     4.13196e-01    ;  uncertainty sigma = 0.000018, epsilon = 0.000667
 n7bf                                   7      0.0000       0.00000       A     3.38407e-01     3.93685e-01    ;  uncertainty sigma = 0.000013, epsilon = 0.000791
 n8bf                                   7      0.0000       0.00000       A     3.18950e-01     8.99076e-01    ;  uncertainty sigma = 0.000052, epsilon = 0.003577
 c9bf                                   6      0.0000       0.00000       A     3.39774e-01     4.50953e-01    ;  uncertainty sigma = 0.000012, epsilon = 0.001229
 c10bf                                  6      0.0000       0.00000       A     3.39776e-01     4.51373e-01    ;  uncertainty sigma = 0.000009, epsilon = 0.000969
 c11bf                                  6      0.0000       0.00000       A     3.39784e-01     4.51219e-01    ;  uncertainty sigma = 0.000006, epsilon = 0.000696
 n12bf                                  7      0.0000       0.00000       A     3.18079e-01     6.84112e-01    ;  uncertainty sigma = 0.000014, epsilon = 0.001025
 c13bf                                  6      0.0000       0.00000       A     3.39784e-01     4.51219e-01    ;  uncertainty sigma = 0.000006, epsilon = 0.000696
 c14bf                                  6      0.0000       0.00000       A     3.39776e-01     4.51373e-01    ;  uncertainty sigma = 0.000009, epsilon = 0.000969
 c15bf                                  6      0.0000       0.00000       A     3.39774e-01     4.50953e-01    ;  uncertainty sigma = 0.000012, epsilon = 0.001229
 c16bf                                  6      0.0000       0.00000       A     3.31535e-01     4.13207e-01    ;  uncertainty sigma = 0.000024, epsilon = 0.001638
 o17bf                                  8      0.0000       0.00000       A     3.04853e-01     6.12088e-01    ;  uncertainty sigma = 0.000030, epsilon = 0.001067
 c18bf                                  6      0.0000       0.00000       A     3.31557e-01     4.12697e-01    ;  uncertainty sigma = 0.000026, epsilon = 0.001643
 c19bf                                  6      0.0000       0.00000       A     3.31517e-01     4.13423e-01    ;  uncertainty sigma = 0.000011, epsilon = 0.000790
 c20bf                                  6      0.0000       0.00000       A     3.31518e-01     4.13354e-01    ;  uncertainty sigma = 0.000003, epsilon = 0.000565
 c21bf                                  6      0.0000       0.00000       A     3.31520e-01     4.13228e-01    ;  uncertainty sigma = 0.000005, epsilon = 0.000736
 c22bf                                  6      0.0000       0.00000       A     3.31517e-01     4.13511e-01    ;  uncertainty sigma = 0.000014, epsilon = 0.001086
 c23bf                                  6      0.0000       0.00000       A     3.39783e-01     4.50870e-01    ;  uncertainty sigma = 0.000005, epsilon = 0.000466
 c24bf                                  6      0.0000       0.00000       A     3.31538e-01     4.12751e-01    ;  uncertainty sigma = 0.000022, epsilon = 0.001755
 n25bf                                  7      0.0000       0.00000       A     3.20511e-01     8.54741e-01    ;  uncertainty sigma = 0.000037, epsilon = 0.003727
 n26bf                                  7      0.0000       0.00000       A     3.38429e-01     3.93778e-01    ;  uncertainty sigma = 0.000012, epsilon = 0.000706
 c27bf                                  6      0.0000       0.00000       A     3.31537e-01     4.13587e-01    ;  uncertainty sigma = 0.000007, epsilon = 0.000835
 c28bf                                  6      0.0000       0.00000       A     3.31537e-01     4.13587e-01    ;  uncertainty sigma = 0.000007, epsilon = 0.000835
 n29bf                                  7      0.0000       0.00000       A     3.38429e-01     3.93778e-01    ;  uncertainty sigma = 0.000012, epsilon = 0.000706
 h30bf                                  1      0.0000       0.00000       A     2.60034e-01     8.66332e-02    ;  uncertainty sigma = 0.000007, epsilon = 0.000537
 h31bf                                  1      0.0000       0.00000       A     2.60034e-01     8.66332e-02    ;  uncertainty sigma = 0.000007, epsilon = 0.000537
 h32bf                                  1      0.0000       0.00000       A     2.60034e-01     8.66332e-02    ;  uncertainty sigma = 0.000007, epsilon = 0.000537
 h33bf                                  1      0.0000       0.00000       A     2.62580e-01     6.71311e-02    ;  uncertainty sigma = 0.000016, epsilon = 0.000304
 h34bf                                  1      0.0000       0.00000       A     2.60034e-01     8.66332e-02    ;  uncertainty sigma = 0.000007, epsilon = 0.000537
 h35bf                                  1      0.0000       0.00000       A     2.60034e-01     8.66332e-02    ;  uncertainty sigma = 0.000007, epsilon = 0.000537
 h36bf                                  1      0.0000       0.00000       A     2.60034e-01     8.66332e-02    ;  uncertainty sigma = 0.000007, epsilon = 0.000537
 h37bf                                  1      0.0000       0.00000       A     2.42199e-01     8.66324e-02    ;  uncertainty sigma = 0.000024, epsilon = 0.001250
 h38bf                                  1      0.0000       0.00000       A     2.42199e-01     8.66324e-02    ;  uncertainty sigma = 0.000024, epsilon = 0.001250
 h39bf                                  1      0.0000       0.00000       A     2.59994e-01     8.68892e-02    ;  uncertainty sigma = 0.000026, epsilon = 0.000553
 h40bf                                  1      0.0000       0.00000       A     2.42194e-01     8.66543e-02    ;  uncertainty sigma = 0.000021, epsilon = 0.000863
 h41bf                                  1      0.0000       0.00000       A     2.42194e-01     8.66543e-02    ;  uncertainty sigma = 0.000021, epsilon = 0.000863
 h42bf                                  1      0.0000       0.00000       A     2.42194e-01     8.66545e-02    ;  uncertainty sigma = 0.000021, epsilon = 0.000863
 h43bf                                  1      0.0000       0.00000       A     2.42194e-01     8.66545e-02    ;  uncertainty sigma = 0.000021, epsilon = 0.000863
 h44bf                                  1      0.0000       0.00000       A     2.59994e-01     8.68892e-02    ;  uncertainty sigma = 0.000026, epsilon = 0.000553
 h45bf                                  1      0.0000       0.00000       A     2.42199e-01     8.66324e-02    ;  uncertainty sigma = 0.000024, epsilon = 0.001250
 h46bf                                  1      0.0000       0.00000       A     2.42199e-01     8.66324e-02    ;  uncertainty sigma = 0.000024, epsilon = 0.001250
 h47bf                                  1      0.0000       0.00000       A     2.62559e-01     6.71465e-02    ;  uncertainty sigma = 0.000008, epsilon = 0.000593
 h48bf                                  1      0.0000       0.00000       A     2.62562e-01     6.70209e-02    ;  uncertainty sigma = 0.000009, epsilon = 0.000413
 h49bf                                  1      0.0000       0.00000       A     2.62557e-01     6.70649e-02    ;  uncertainty sigma = 0.000010, epsilon = 0.000376
 h50bf                                  1      0.0000       0.00000       A     2.60027e-01     8.67204e-02    ;  uncertainty sigma = 0.000006, epsilon = 0.000510
 h51bf                                  1      0.0000       0.00000       A     2.60027e-01     8.67204e-02    ;  uncertainty sigma = 0.000006, epsilon = 0.000510
 h52bf                                  1      0.0000       0.00000       A     2.60027e-01     8.67204e-02    ;  uncertainty sigma = 0.000006, epsilon = 0.000510
 h53bf                                  1      0.0000       0.00000       A     2.53604e-01     6.70807e-02    ;  uncertainty sigma = 0.000028, epsilon = 0.000600
 h54bf                                  1      0.0000       0.00000       A     2.53604e-01     6.70806e-02    ;  uncertainty sigma = 0.000028, epsilon = 0.000600

[ moleculetype ]
;name             nrexcl
 MOL                   3

[ atoms ]
;       nr            type      resi   res      atom      cgnr      charge          mass ; qtot
         1            c0bf         1   UNL        c0         1    -0.15162       12.0110 ; qtot   -0.152
         2            c1bf         1   UNL        c1         2     0.48649       12.0110 ; qtot    0.335
         3            c2bf         1   UNL        c2         3    -0.41183       12.0110 ; qtot   -0.077
         4            c3bf         1   UNL        c3         4     0.48649       12.0110 ; qtot    0.410
         5            c4bf         1   UNL        c4         5    -0.15162       12.0110 ; qtot    0.258
         6            n5bf         1   UNL        n5         6    -0.77862       14.0070 ; qtot   -0.521
         7            c6bf         1   UNL        c6         7     0.90706       12.0110 ; qtot    0.386
         8            n7bf         1   UNL        n7         8    -0.77862       14.0070 ; qtot   -0.392
         9            n8bf         1   UNL        n8         9    -0.79085       14.0070 ; qtot   -1.183
        10            c9bf         1   UNL        c9        10     0.23390       12.0110 ; qtot   -0.949
        11           c10bf         1   UNL       c10        11    -0.09743       12.0110 ; qtot   -1.047
        12           c11bf         1   UNL       c11        12     0.10795       12.0110 ; qtot   -0.939
        13           n12bf         1   UNL       n12        13    -0.47105       14.0070 ; qtot   -1.410
        14           c13bf         1   UNL       c13        14     0.10795       12.0110 ; qtot   -1.302
        15           c14bf         1   UNL       c14        15    -0.09743       12.0110 ; qtot   -1.399
        16           c15bf         1   UNL       c15        16     0.23390       12.0110 ; qtot   -1.165
        17           c16bf         1   UNL       c16        17     0.69192       12.0110 ; qtot   -0.473
        18           o17bf         1   UNL       o17        18    -0.59052       15.9990 ; qtot   -1.064
        19           c18bf         1   UNL       c18        19    -0.12101       12.0110 ; qtot   -1.185
        20           c19bf         1   UNL       c19        20    -0.10114       12.0110 ; qtot   -1.286
        21           c20bf         1   UNL       c20        21    -0.11780       12.0110 ; qtot   -1.404
        22           c21bf         1   UNL       c21        22    -0.11440       12.0110 ; qtot   -1.518
        23           c22bf         1   UNL       c22        23    -0.04915       12.0110 ; qtot   -1.567
        24           c23bf         1   UNL       c23        24    -0.05041       12.0110 ; qtot   -1.618
        25           c24bf         1   UNL       c24        25     0.03844       12.0110 ; qtot   -1.579
        26           n25bf         1   UNL       n25        26     0.30731       14.0070 ; qtot   -1.272
        27           n26bf         1   UNL       n26        27    -0.47435       14.0070 ; qtot   -1.746
        28           c27bf         1   UNL       c27        28     0.20209       12.0110 ; qtot   -1.544
        29           c28bf         1   UNL       c28        29     0.20209       12.0110 ; qtot   -1.342
        30           n29bf         1   UNL       n29        30    -0.47435       14.0070 ; qtot   -1.817
        31           h30bf         1   UNL       h30        31     0.05868        1.0080 ; qtot   -1.758
        32           h31bf         1   UNL       h31        32     0.05868        1.0080 ; qtot   -1.699
        33           h32bf         1   UNL       h32        33     0.05868        1.0080 ; qtot   -1.641
        34           h33bf         1   UNL       h33        34     0.15114        1.0080 ; qtot   -1.489
        35           h34bf         1   UNL       h34        35     0.05868        1.0080 ; qtot   -1.431
        36           h35bf         1   UNL       h35        36     0.05868        1.0080 ; qtot   -1.372
        37           h36bf         1   UNL       h36        37     0.05868        1.0080 ; qtot   -1.313
        38           h37bf         1   UNL       h37        38     0.05891        1.0080 ; qtot   -1.254
        39           h38bf         1   UNL       h38        39     0.05891        1.0080 ; qtot   -1.196
        40           h39bf         1   UNL       h39        40     0.07237        1.0080 ; qtot   -1.123
        41           h40bf         1   UNL       h40        41     0.05981        1.0080 ; qtot   -1.063
        42           h41bf         1   UNL       h41        42     0.05981        1.0080 ; qtot   -1.004
        43           h42bf         1   UNL       h42        43     0.05981        1.0080 ; qtot   -0.944
        44           h43bf         1   UNL       h43        44     0.05981        1.0080 ; qtot   -0.884
        45           h44bf         1   UNL       h44        45     0.07237        1.0080 ; qtot   -0.812
        46           h45bf         1   UNL       h45        46     0.05891        1.0080 ; qtot   -0.753
        47           h46bf         1   UNL       h46        47     0.05891        1.0080 ; qtot   -0.694
        48           h47bf         1   UNL       h47        48     0.14993        1.0080 ; qtot   -0.544
        49           h48bf         1   UNL       h48        49     0.13986        1.0080 ; qtot   -0.404
        50           h49bf         1   UNL       h49        50     0.13685        1.0080 ; qtot   -0.267
        51           h50bf         1   UNL       h50        51     0.05241        1.0080 ; qtot   -0.215
        52           h51bf         1   UNL       h51        52     0.05241        1.0080 ; qtot   -0.162
        53           h52bf         1   UNL       h52        53     0.05241        1.0080 ; qtot   -0.110
        54           h53bf         1   UNL       h53        54     0.05496        1.0080 ; qtot   -0.055
        55           h54bf         1   UNL       h54        55     0.05494        1.0080 ; qtot    0.000

[ bonds ]
;       ai        aj funct               r               k
         1         2     1        0.150631   258312.636768    ;  uncertainty r = 0.000036, k = 5.578436
         1        31     1        0.109444   310537.557666    ;  uncertainty r = 0.000015, k = 1.598088
         1        32     1        0.109444   310537.557666    ;  uncertainty r = 0.000015, k = 1.598088
         1        33     1        0.109444   310537.557666    ;  uncertainty r = 0.000015, k = 1.598088
         2         3     1        0.140287   430446.109863    ;  uncertainty r = 0.000066, k = 4.969217
         2         8     1        0.134238   464612.770313    ;  uncertainty r = 0.000041, k = 6.904087
         3         4     1        0.140287   430446.109863    ;  uncertainty r = 0.000066, k = 4.969217
         3        34     1        0.108737   344393.252734    ;  uncertainty r = 0.000026, k = 3.476286
         4         5     1        0.150631   258312.636768    ;  uncertainty r = 0.000036, k = 5.578436
         4         6     1        0.134238   464612.770313    ;  uncertainty r = 0.000041, k = 6.904087
         5        35     1        0.109444   310537.557666    ;  uncertainty r = 0.000015, k = 1.598088
         5        36     1        0.109444   310537.557666    ;  uncertainty r = 0.000015, k = 1.598088
         5        37     1        0.109444   310537.557666    ;  uncertainty r = 0.000015, k = 1.598088
         6         7     1        0.135351   495763.447070    ;  uncertainty r = 0.000102, k = 13.751618
         7         8     1        0.135351   495763.447070    ;  uncertainty r = 0.000102, k = 13.751618
         7         9     1        0.136652   318374.973145    ;  uncertainty r = 0.000092, k = 21.200785
         9        10     1        0.146381   223708.423486    ;  uncertainty r = 0.000058, k = 14.342670
         9        16     1        0.146381   223708.423486    ;  uncertainty r = 0.000058, k = 14.342768
        10        11     1        0.153378   218045.467334    ;  uncertainty r = 0.000067, k = 7.088220
        10        38     1        0.109551   306518.450781    ;  uncertainty r = 0.000069, k = 2.534282
        10        39     1        0.109551   306518.450781    ;  uncertainty r = 0.000069, k = 2.534282
        11        12     1        0.153480   216617.049121    ;  uncertainty r = 0.000023, k = 7.412723
        11        15     1        0.154451   200722.496875    ;  uncertainty r = 0.000080, k = 20.796785
        11        40     1        0.109350   305021.261133    ;  uncertainty r = 0.000029, k = 3.829702
        12        13     1        0.147066   239433.741309    ;  uncertainty r = 0.000053, k = 14.441706
        12        41     1        0.109439   307434.875488    ;  uncertainty r = 0.000026, k = 1.171544
        12        42     1        0.109439   307434.875488    ;  uncertainty r = 0.000026, k = 1.171544
        13        14     1        0.147066   239433.741309    ;  uncertainty r = 0.000053, k = 14.441669
        13        17     1        0.135556   332731.450830    ;  uncertainty r = 0.000067, k = 9.688376
        14        15     1        0.153480   216617.049121    ;  uncertainty r = 0.000023, k = 7.412681
        14        43     1        0.109439   307434.875488    ;  uncertainty r = 0.000026, k = 1.171521
        14        44     1        0.109439   307434.875488    ;  uncertainty r = 0.000026, k = 1.171521
        15        16     1        0.153378   218045.441797    ;  uncertainty r = 0.000067, k = 7.088228
        15        45     1        0.109350   305021.261133    ;  uncertainty r = 0.000029, k = 3.829660
        16        46     1        0.109551   306518.450781    ;  uncertainty r = 0.000069, k = 2.534287
        16        47     1        0.109551   306518.450781    ;  uncertainty r = 0.000069, k = 2.534287
        17        18     1        0.123638   758822.232227    ;  uncertainty r = 0.000071, k = 8.462777
        17        19     1        0.150704   270820.151123    ;  uncertainty r = 0.000071, k = 21.567598
        19        20     1        0.139586   352622.049951    ;  uncertainty r = 0.000057, k = 13.381668
        19        25     1        0.139680   318113.370996    ;  uncertainty r = 0.000120, k = 8.363767
        20        21     1        0.139372   374717.318799    ;  uncertainty r = 0.000037, k = 5.612652
        20        48     1        0.108673   328606.416016    ;  uncertainty r = 0.000032, k = 1.856700
        21        22     1        0.139493   380733.504248    ;  uncertainty r = 0.000047, k = 2.279302
        21        49     1        0.108786   332948.669482    ;  uncertainty r = 0.000014, k = 1.652782
        22        23     1        0.139878   357139.385840    ;  uncertainty r = 0.000051, k = 2.805969
        22        50     1        0.108792   333871.555078    ;  uncertainty r = 0.000013, k = 1.126733
        23        24     1        0.150876   232220.835840    ;  uncertainty r = 0.000038, k = 6.248064
        23        25     1        0.139958   322774.710645    ;  uncertainty r = 0.000105, k = 12.999008
        24        51     1        0.109417   309507.007617    ;  uncertainty r = 0.000016, k = 1.928617
        24        52     1        0.109417   309507.007617    ;  uncertainty r = 0.000016, k = 1.928617
        24        53     1        0.109417   309507.007617    ;  uncertainty r = 0.000016, k = 1.928617
        25        26     1        0.141971   332918.382471    ;  uncertainty r = 0.000103, k = 14.694270
        26        27     1        0.134369   231549.950439    ;  uncertainty r = 0.000086, k = 12.043423
        26        30     1        0.134369   231549.950439    ;  uncertainty r = 0.000086, k = 12.043423
        27        28     1        0.133060   462458.970508    ;  uncertainty r = 0.000067, k = 7.462329
        28        29     1        0.141781   249584.001709    ;  uncertainty r = 0.000103, k = 15.332670
        28        54     1        0.108418   339910.136572    ;  uncertainty r = 0.000037, k = 1.124299
        29        30     1        0.133060   462458.970508    ;  uncertainty r = 0.000067, k = 7.462329
        29        55     1        0.108418   339910.136572    ;  uncertainty r = 0.000037, k = 1.124299

[ angles ]
;       ai        aj        ak funct           theta             cth
         1         2         3     1      122.372604      418.636154    ;  uncertainty theta = 0.002202, k = 0.178974
         1         2         8     1      118.694351      504.935496    ;  uncertainty theta = 0.002079, k = 0.183388
         2         1        31     1      108.943436      385.594359    ;  uncertainty theta = 0.001293, k = 0.046207
         2         1        32     1      108.943436      385.594359    ;  uncertainty theta = 0.001293, k = 0.046207
         2         1        33     1      108.943436      385.594359    ;  uncertainty theta = 0.001293, k = 0.046207
         2         3         4     1      116.498520      460.598349    ;  uncertainty theta = 0.005053, k = 0.122034
         2         3        34     1      121.718430      273.369457    ;  uncertainty theta = 0.001159, k = 0.085456
         2         8         7     1      115.347641      408.898855    ;  uncertainty theta = 0.006383, k = 0.283100
         3         2         8     1      120.465759      656.141103    ;  uncertainty theta = 0.004510, k = 0.102828
         3         4         5     1      122.372604      418.636154    ;  uncertainty theta = 0.002202, k = 0.178974
         3         4         6     1      120.465759      656.141103    ;  uncertainty theta = 0.004510, k = 0.102828
         4         3        34     1      121.718430      273.369457    ;  uncertainty theta = 0.001159, k = 0.085456
         4         5        35     1      108.943436      385.594359    ;  uncertainty theta = 0.001293, k = 0.046207
         4         5        36     1      108.943436      385.594359    ;  uncertainty theta = 0.001293, k = 0.046207
         4         5        37     1      108.943436      385.594359    ;  uncertainty theta = 0.001293, k = 0.046207
         4         6         7     1      115.347641      408.898855    ;  uncertainty theta = 0.006383, k = 0.283100
         5         4         6     1      118.694351      504.935496    ;  uncertainty theta = 0.002079, k = 0.183388
         6         7         8     1      129.113480      717.709797    ;  uncertainty theta = 0.004729, k = 0.118642
         6         7         9     1      119.537033      549.082007    ;  uncertainty theta = 0.007399, k = 0.202209
         7         9        10     1      113.699562      433.285581    ;  uncertainty theta = 0.003934, k = 0.215172
         7         9        16     1      113.699562      433.285581    ;  uncertainty theta = 0.003934, k = 0.215172
         8         7         9     1      119.537033      549.082007    ;  uncertainty theta = 0.007399, k = 0.202209
         9        10        11     1      105.543358      834.662672    ;  uncertainty theta = 0.001817, k = 0.093259
         9        10        38     1      108.562340      456.415882    ;  uncertainty theta = 0.001202, k = 0.062362
         9        10        39     1      108.562340      456.415882    ;  uncertainty theta = 0.001202, k = 0.062362
         9        16        15     1      105.543358      834.662672    ;  uncertainty theta = 0.001817, k = 0.093260
         9        16        46     1      108.562340      456.415882    ;  uncertainty theta = 0.001202, k = 0.062362
         9        16        47     1      108.562340      456.415882    ;  uncertainty theta = 0.001202, k = 0.062362
        10         9        16     1      112.639450      489.228386    ;  uncertainty theta = 0.009972, k = 0.334405
        10        11        12     1      113.001526      495.885112    ;  uncertainty theta = 0.002967, k = 0.272650
        10        11        15     1      106.407143      696.228300    ;  uncertainty theta = 0.000820, k = 0.121960
        10        11        40     1      108.909218      387.529593    ;  uncertainty theta = 0.002428, k = 0.196423
        11        10        38     1      109.942749      401.681046    ;  uncertainty theta = 0.001744, k = 0.042629
        11        10        39     1      109.942749      401.681046    ;  uncertainty theta = 0.001744, k = 0.042629
        11        12        13     1      106.107704      800.252694    ;  uncertainty theta = 0.003120, k = 0.175972
        11        12        41     1      109.812805      398.157914    ;  uncertainty theta = 0.002056, k = 0.096133
        11        12        42     1      109.812805      398.157914    ;  uncertainty theta = 0.002056, k = 0.096133
        11        15        14     1      106.536072      683.535718    ;  uncertainty theta = 0.002057, k = 0.120116
        11        15        16     1      106.407143      696.228492    ;  uncertainty theta = 0.000820, k = 0.121960
        11        15        45     1      109.787766      408.249925    ;  uncertainty theta = 0.001833, k = 0.098421
        12        11        15     1      106.536072      683.535654    ;  uncertainty theta = 0.002057, k = 0.120117
        12        11        40     1      108.976547      381.109245    ;  uncertainty theta = 0.002391, k = 0.150517
        12        13        14     1      114.291725      544.244257    ;  uncertainty theta = 0.003124, k = 0.147477
        12        13        17     1      117.988449      360.682717    ;  uncertainty theta = 0.004794, k = 0.072756
        13        12        41     1      109.290787      458.934703    ;  uncertainty theta = 0.001401, k = 0.102756
        13        12        42     1      109.290787      458.934703    ;  uncertainty theta = 0.001401, k = 0.102756
        13        14        15     1      106.107704      800.252694    ;  uncertainty theta = 0.003120, k = 0.175972
        13        14        43     1      109.290787      458.934703    ;  uncertainty theta = 0.001401, k = 0.102756
        13        14        44     1      109.290787      458.934703    ;  uncertainty theta = 0.001401, k = 0.102756
        13        17        18     1      124.763573      735.718056    ;  uncertainty theta = 0.002056, k = 0.119201
        13        17        19     1      112.752220      383.120898    ;  uncertainty theta = 0.002543, k = 0.185744
        14        13        17     1      117.988449      360.682717    ;  uncertainty theta = 0.004794, k = 0.072755
        14        15        16     1      113.001526      495.885112    ;  uncertainty theta = 0.002967, k = 0.272650
        14        15        45     1      108.976547      381.109245    ;  uncertainty theta = 0.002391, k = 0.150517
        15        11        40     1      109.787766      408.249925    ;  uncertainty theta = 0.001833, k = 0.098421
        15        14        43     1      109.812805      398.157914    ;  uncertainty theta = 0.002056, k = 0.096133
        15        14        44     1      109.812805      398.157914    ;  uncertainty theta = 0.002056, k = 0.096133
        15        16        46     1      109.942749      401.681014    ;  uncertainty theta = 0.001744, k = 0.042629
        15        16        47     1      109.942749      401.681014    ;  uncertainty theta = 0.001744, k = 0.042629
        16        15        45     1      108.909218      387.529561    ;  uncertainty theta = 0.002428, k = 0.196423
        17        19        20     1      121.857071      381.786329    ;  uncertainty theta = 0.004676, k = 0.143265
        17        19        25     1      120.488449      353.999879    ;  uncertainty theta = 0.009626, k = 0.323171
        18        17        19     1      125.049828      484.928064    ;  uncertainty theta = 0.003748, k = 0.320828
        19        20        21     1      119.676292      504.761141    ;  uncertainty theta = 0.003888, k = 0.083614
        19        20        48     1      119.411461      268.897398    ;  uncertainty theta = 0.001684, k = 0.141978
        19        25        23     1      127.748009      406.770145    ;  uncertainty theta = 0.005068, k = 0.199086
        19        25        26     1      116.400597      433.810018    ;  uncertainty theta = 0.008601, k = 0.199468
        20        19        25     1      122.463760      437.804213    ;  uncertainty theta = 0.010469, k = 0.227974
        20        21        22     1      118.659523      506.169257    ;  uncertainty theta = 0.003665, k = 0.054404
        20        21        49     1      120.448563      282.112948    ;  uncertainty theta = 0.001973, k = 0.055858
        21        20        48     1      121.021019      291.709187    ;  uncertainty theta = 0.002333, k = 0.051431
        21        22        23     1      120.727402      516.052693    ;  uncertainty theta = 0.001802, k = 0.103670
        21        22        50     1      120.378845      288.778166    ;  uncertainty theta = 0.000624, k = 0.045939
        22        21        49     1      120.566261      287.002411    ;  uncertainty theta = 0.001332, k = 0.020509
        22        23        24     1      121.500504      429.252920    ;  uncertainty theta = 0.002887, k = 0.185734
        22        23        25     1      120.309372      437.205208    ;  uncertainty theta = 0.004944, k = 0.129793
        23        22        50     1      117.869705      274.976667    ;  uncertainty theta = 0.002544, k = 0.073392
        23        24        51     1      109.427002      397.008489    ;  uncertainty theta = 0.001543, k = 0.019902
        23        24        52     1      109.427002      397.008489    ;  uncertainty theta = 0.001543, k = 0.019902
        23        24        53     1      109.427002      397.008489    ;  uncertainty theta = 0.001543, k = 0.019902
        23        25        26     1      117.141647      450.105854    ;  uncertainty theta = 0.006755, k = 0.407465
        24        23        25     1      117.778542      409.637292    ;  uncertainty theta = 0.004875, k = 0.209909
        25        26        27     1      117.503860      428.671440    ;  uncertainty theta = 0.004997, k = 0.169733
        25        26        30     1      117.503860      428.671440    ;  uncertainty theta = 0.004997, k = 0.169733
        26        27        28     1      105.148865      924.159387    ;  uncertainty theta = 0.004436, k = 0.155066
        26        30        29     1      105.148865      924.159387    ;  uncertainty theta = 0.004436, k = 0.155066
        27        26        30     1      113.575500     1180.151926    ;  uncertainty theta = 0.004548, k = 0.171323
        27        28        29     1      108.838257      885.130703    ;  uncertainty theta = 0.003569, k = 0.108214
        27        28        54     1      119.787964      274.255148    ;  uncertainty theta = 0.004100, k = 0.147469
        28        29        30     1      108.838257      885.130703    ;  uncertainty theta = 0.003569, k = 0.108214
        28        29        55     1      127.065453      242.460680    ;  uncertainty theta = 0.004115, k = 0.077998
        29        28        54     1      127.065453      242.460680    ;  uncertainty theta = 0.004115, k = 0.077998
        30        29        55     1      119.787964      274.255148    ;  uncertainty theta = 0.004100, k = 0.147469
        31         1        32     1      107.153793      312.530167    ;  uncertainty theta = 0.001242, k = 0.032267
        31         1        33     1      107.153793      312.530167    ;  uncertainty theta = 0.001242, k = 0.032267
        32         1        33     1      107.153793      312.530167    ;  uncertainty theta = 0.001242, k = 0.032267
        35         5        36     1      107.153793      312.530167    ;  uncertainty theta = 0.001242, k = 0.032267
        35         5        37     1      107.153793      312.530167    ;  uncertainty theta = 0.001242, k = 0.032267
        36         5        37     1      107.153793      312.530167    ;  uncertainty theta = 0.001242, k = 0.032267
        38        10        39     1      105.123001      312.324913    ;  uncertainty theta = 0.002382, k = 0.114503
        41        12        42     1      105.371437      309.387890    ;  uncertainty theta = 0.003860, k = 0.079571
        43        14        44     1      105.371437      309.387890    ;  uncertainty theta = 0.003860, k = 0.079571
        46        16        47     1      105.123001      312.324913    ;  uncertainty theta = 0.002382, k = 0.114503
        51        24        52     1      106.739075      316.053395    ;  uncertainty theta = 0.000957, k = 0.021582
        51        24        53     1      106.739075      316.053395    ;  uncertainty theta = 0.000957, k = 0.021582
        52        24        53     1      106.739075      316.053395    ;  uncertainty theta = 0.000957, k = 0.021582

[ dihedrals ] ; propers for gromacs 4.5 or higher, use funct 9
;       ai        aj        ak        al funct           phase               k        pn
         1         2         3         4     9        0.000000       -0.007202         1    ;  uncertainty k = 0.501717
         1         2         3         4     9      180.000000        7.613770         2    ;  uncertainty k = 0.266340
         1         2         3         4     9        0.000000        0.944105         3    ;  uncertainty k = 0.227996
         1         2         3         4     9      180.000000        1.305657         4    ;  uncertainty k = 0.239337
         1         2         3        34     9        0.000000       -0.261675         1    ;  uncertainty k = 0.315637
         1         2         3        34     9      180.000000        6.874962         2    ;  uncertainty k = 0.342650
         1         2         3        34     9        0.000000        0.656535         3    ;  uncertainty k = 0.284603
         1         2         3        34     9      180.000000        0.765991         4    ;  uncertainty k = 0.276599
         1         2         8         7     9        0.000000        0.048315         1    ;  uncertainty k = 0.979765
         1         2         8         7     9      180.000000       15.003732         2    ;  uncertainty k = 0.544478
         1         2         8         7     9        0.000000        2.381190         3    ;  uncertainty k = 0.363196
         1         2         8         7     9      180.000000        1.660639         4    ;  uncertainty k = 0.462769
         2         3         4         5     9        0.000000       -0.007202         1    ;  uncertainty k = 0.501717
         2         3         4         5     9      180.000000        7.613770         2    ;  uncertainty k = 0.266340
         2         3         4         5     9        0.000000        0.944105         3    ;  uncertainty k = 0.227996
         2         3         4         5     9      180.000000        1.305657         4    ;  uncertainty k = 0.239337
         2         3         4         6     9        0.000000       -0.216009         1    ;  uncertainty k = 0.356936
         2         3         4         6     9      180.000000       11.910555         2    ;  uncertainty k = 0.424709
         2         3         4         6     9        0.000000       -1.407438         3    ;  uncertainty k = 0.758939
         2         3         4         6     9      180.000000        0.980955         4    ;  uncertainty k = 0.077687
         2         8         7         6     9        0.000000       -0.609060         1    ;  uncertainty k = 0.758199
         2         8         7         6     9      180.000000        8.692615         2    ;  uncertainty k = 0.791818
         2         8         7         6     9        0.000000        0.670286         3    ;  uncertainty k = 0.621159
         2         8         7         6     9      180.000000        0.786580         4    ;  uncertainty k = 0.112571
         2         8         7         9     9        0.000000        0.521917         1    ;  uncertainty k = 0.979110
         2         8         7         9     9      180.000000       10.533274         2    ;  uncertainty k = 0.414227
         2         8         7         9     9        0.000000        1.726081         3    ;  uncertainty k = 0.365721
         2         8         7         9     9      180.000000        0.994637         4    ;  uncertainty k = 0.141068
         3         2         1        31     9        0.000000       -0.250297         1    ;  uncertainty k = 0.274873
         3         2         1        31     9      180.000000        2.290444         2    ;  uncertainty k = 0.171777
         3         2         1        31     9        0.000000        0.278065         3    ;  uncertainty k = 0.038017
         3         2         1        31     9      180.000000        0.146673         4    ;  uncertainty k = 0.025666
         3         2         1        32     9        0.000000       -0.250297         1    ;  uncertainty k = 0.274873
         3         2         1        32     9      180.000000        2.290444         2    ;  uncertainty k = 0.171777
         3         2         1        32     9        0.000000        0.278065         3    ;  uncertainty k = 0.038017
         3         2         1        32     9      180.000000        0.146673         4    ;  uncertainty k = 0.025666
         3         2         1        33     9        0.000000       -0.250297         1    ;  uncertainty k = 0.274873
         3         2         1        33     9      180.000000        2.290444         2    ;  uncertainty k = 0.171777
         3         2         1        33     9        0.000000        0.278065         3    ;  uncertainty k = 0.038017
         3         2         1        33     9      180.000000        0.146673         4    ;  uncertainty k = 0.025666
         3         2         8         7     9        0.000000       -0.347754         1    ;  uncertainty k = 0.474198
         3         2         8         7     9      180.000000       15.075407         2    ;  uncertainty k = 0.177114
         3         2         8         7     9        0.000000        0.171723         3    ;  uncertainty k = 0.438996
         3         2         8         7     9      180.000000        1.128465         4    ;  uncertainty k = 0.364424
         3         4         5        35     9        0.000000       -0.250297         1    ;  uncertainty k = 0.274873
         3         4         5        35     9      180.000000        2.290444         2    ;  uncertainty k = 0.171777
         3         4         5        35     9        0.000000        0.278065         3    ;  uncertainty k = 0.038017
         3         4         5        35     9      180.000000        0.146673         4    ;  uncertainty k = 0.025666
         3         4         5        36     9        0.000000       -0.250297         1    ;  uncertainty k = 0.274873
         3         4         5        36     9      180.000000        2.290444         2    ;  uncertainty k = 0.171777
         3         4         5        36     9        0.000000        0.278065         3    ;  uncertainty k = 0.038017
         3         4         5        36     9      180.000000        0.146673         4    ;  uncertainty k = 0.025666
         3         4         5        37     9        0.000000       -0.250297         1    ;  uncertainty k = 0.274873
         3         4         5        37     9      180.000000        2.290444         2    ;  uncertainty k = 0.171777
         3         4         5        37     9        0.000000        0.278065         3    ;  uncertainty k = 0.038017
         3         4         5        37     9      180.000000        0.146673         4    ;  uncertainty k = 0.025666
         3         4         6         7     9        0.000000       -0.347754         1    ;  uncertainty k = 0.474198
         3         4         6         7     9      180.000000       15.075407         2    ;  uncertainty k = 0.177114
         3         4         6         7     9        0.000000        0.171723         3    ;  uncertainty k = 0.438996
         3         4         6         7     9      180.000000        1.128465         4    ;  uncertainty k = 0.364424
         4         3         2         8     9        0.000000       -0.216009         1    ;  uncertainty k = 0.356936
         4         3         2         8     9      180.000000       11.910555         2    ;  uncertainty k = 0.424709
         4         3         2         8     9        0.000000       -1.407438         3    ;  uncertainty k = 0.758939
         4         3         2         8     9      180.000000        0.980955         4    ;  uncertainty k = 0.077687
         4         6         7         8     9        0.000000       -0.609060         1    ;  uncertainty k = 0.758199
         4         6         7         8     9      180.000000        8.692615         2    ;  uncertainty k = 0.791818
         4         6         7         8     9        0.000000        0.670286         3    ;  uncertainty k = 0.621159
         4         6         7         8     9      180.000000        0.786580         4    ;  uncertainty k = 0.112571
         4         6         7         9     9        0.000000        0.521917         1    ;  uncertainty k = 0.979110
         4         6         7         9     9      180.000000       10.533274         2    ;  uncertainty k = 0.414227
         4         6         7         9     9        0.000000        1.726081         3    ;  uncertainty k = 0.365721
         4         6         7         9     9      180.000000        0.994637         4    ;  uncertainty k = 0.141068
         5         4         3        34     9        0.000000       -0.261675         1    ;  uncertainty k = 0.315637
         5         4         3        34     9      180.000000        6.874962         2    ;  uncertainty k = 0.342650
         5         4         3        34     9        0.000000        0.656535         3    ;  uncertainty k = 0.284603
         5         4         3        34     9      180.000000        0.765991         4    ;  uncertainty k = 0.276599
         5         4         6         7     9        0.000000        0.048315         1    ;  uncertainty k = 0.979765
         5         4         6         7     9      180.000000       15.003732         2    ;  uncertainty k = 0.544478
         5         4         6         7     9        0.000000        2.381190         3    ;  uncertainty k = 0.363196
         5         4         6         7     9      180.000000        1.660639         4    ;  uncertainty k = 0.462769
         6         4         3        34     9        0.000000        0.224609         1    ;  uncertainty k = 0.474805
         6         4         3        34     9      180.000000        8.441723         2    ;  uncertainty k = 0.328864
         6         4         3        34     9        0.000000        1.108367         3    ;  uncertainty k = 0.321336
         6         4         3        34     9      180.000000        1.600213         4    ;  uncertainty k = 0.093449
         6         4         5        35     9        0.000000        0.603364         1    ;  uncertainty k = 0.264623
         6         4         5        35     9      180.000000        3.634560         2    ;  uncertainty k = 0.065840
         6         4         5        35     9        0.000000        0.492173         3    ;  uncertainty k = 0.029988
         6         4         5        35     9      180.000000        0.275109         4    ;  uncertainty k = 0.045162
         6         4         5        36     9        0.000000        0.603364         1    ;  uncertainty k = 0.264623
         6         4         5        36     9      180.000000        3.634560         2    ;  uncertainty k = 0.065840
         6         4         5        36     9        0.000000        0.492173         3    ;  uncertainty k = 0.029988
         6         4         5        36     9      180.000000        0.275109         4    ;  uncertainty k = 0.045162
         6         4         5        37     9        0.000000        0.603364         1    ;  uncertainty k = 0.264623
         6         4         5        37     9      180.000000        3.634560         2    ;  uncertainty k = 0.065840
         6         4         5        37     9        0.000000        0.492173         3    ;  uncertainty k = 0.029988
         6         4         5        37     9      180.000000        0.275109         4    ;  uncertainty k = 0.045162
         6         7         9        10     9        0.000000        5.106263         1    ;  uncertainty k = 0.513053
         6         7         9        10     9      180.000000       11.756744         2    ;  uncertainty k = 0.134928
         6         7         9        10     9        0.000000        0.174633         3    ;  uncertainty k = 0.195421
         6         7         9        10     9      180.000000       -0.347384         4    ;  uncertainty k = 0.051935
         6         7         9        16     9        0.000000        5.106262         1    ;  uncertainty k = 0.513053
         6         7         9        16     9      180.000000       11.756744         2    ;  uncertainty k = 0.134928
         6         7         9        16     9        0.000000        0.174633         3    ;  uncertainty k = 0.195420
         6         7         9        16     9      180.000000       -0.347384         4    ;  uncertainty k = 0.051934
         7         9        10        11     9        0.000000       -5.472950         1    ;  uncertainty k = 1.903105
         7         9        10        11     9      180.000000        0.716175         2    ;  uncertainty k = 0.687896
         7         9        10        11     9        0.000000        0.811633         3    ;  uncertainty k = 0.285403
         7         9        10        11     9      180.000000        0.315930         4    ;  uncertainty k = 0.127584
         7         9        10        38     9        0.000000       -0.203572         1    ;  uncertainty k = 0.772783
         7         9        10        38     9      180.000000        1.020940         2    ;  uncertainty k = 0.423811
         7         9        10        38     9        0.000000        0.580937         3    ;  uncertainty k = 0.130796
         7         9        10        38     9      180.000000        0.377931         4    ;  uncertainty k = 0.101923
         7         9        10        39     9        0.000000       -0.203572         1    ;  uncertainty k = 0.772783
         7         9        10        39     9      180.000000        1.020940         2    ;  uncertainty k = 0.423811
         7         9        10        39     9        0.000000        0.580937         3    ;  uncertainty k = 0.130796
         7         9        10        39     9      180.000000        0.377931         4    ;  uncertainty k = 0.101923
         7         9        16        15     9        0.000000       -5.472951         1    ;  uncertainty k = 1.903105
         7         9        16        15     9      180.000000        0.716175         2    ;  uncertainty k = 0.687896
         7         9        16        15     9        0.000000        0.811634         3    ;  uncertainty k = 0.285402
         7         9        16        15     9      180.000000        0.315929         4    ;  uncertainty k = 0.127584
         7         9        16        46     9        0.000000       -0.203573         1    ;  uncertainty k = 0.772782
         7         9        16        46     9      180.000000        1.020940         2    ;  uncertainty k = 0.423811
         7         9        16        46     9        0.000000        0.580937         3    ;  uncertainty k = 0.130796
         7         9        16        46     9      180.000000        0.377930         4    ;  uncertainty k = 0.101923
         7         9        16        47     9        0.000000       -0.203573         1    ;  uncertainty k = 0.772782
         7         9        16        47     9      180.000000        1.020940         2    ;  uncertainty k = 0.423811
         7         9        16        47     9        0.000000        0.580937         3    ;  uncertainty k = 0.130796
         7         9        16        47     9      180.000000        0.377930         4    ;  uncertainty k = 0.101923
         8         2         1        31     9        0.000000        0.603364         1    ;  uncertainty k = 0.264623
         8         2         1        31     9      180.000000        3.634560         2    ;  uncertainty k = 0.065840
         8         2         1        31     9        0.000000        0.492173         3    ;  uncertainty k = 0.029988
         8         2         1        31     9      180.000000        0.275109         4    ;  uncertainty k = 0.045162
         8         2         1        32     9        0.000000        0.603364         1    ;  uncertainty k = 0.264623
         8         2         1        32     9      180.000000        3.634560         2    ;  uncertainty k = 0.065840
         8         2         1        32     9        0.000000        0.492173         3    ;  uncertainty k = 0.029988
         8         2         1        32     9      180.000000        0.275109         4    ;  uncertainty k = 0.045162
         8         2         1        33     9        0.000000        0.603364         1    ;  uncertainty k = 0.264623
         8         2         1        33     9      180.000000        3.634560         2    ;  uncertainty k = 0.065840
         8         2         1        33     9        0.000000        0.492173         3    ;  uncertainty k = 0.029988
         8         2         1        33     9      180.000000        0.275109         4    ;  uncertainty k = 0.045162
         8         2         3        34     9        0.000000        0.224609         1    ;  uncertainty k = 0.474805
         8         2         3        34     9      180.000000        8.441723         2    ;  uncertainty k = 0.328864
         8         2         3        34     9        0.000000        1.108367         3    ;  uncertainty k = 0.321336
         8         2         3        34     9      180.000000        1.600213         4    ;  uncertainty k = 0.093449
         8         7         9        10     9        0.000000        5.106263         1    ;  uncertainty k = 0.513053
         8         7         9        10     9      180.000000       11.756744         2    ;  uncertainty k = 0.134928
         8         7         9        10     9        0.000000        0.174633         3    ;  uncertainty k = 0.195421
         8         7         9        10     9      180.000000       -0.347384         4    ;  uncertainty k = 0.051935
         8         7         9        16     9        0.000000        5.106262         1    ;  uncertainty k = 0.513053
         8         7         9        16     9      180.000000       11.756744         2    ;  uncertainty k = 0.134928
         8         7         9        16     9        0.000000        0.174633         3    ;  uncertainty k = 0.195420
         8         7         9        16     9      180.000000       -0.347384         4    ;  uncertainty k = 0.051934
         9        10        11        12     9        0.000000       -1.986983         1    ;  uncertainty k = 1.131585
         9        10        11        12     9      180.000000        0.974418         2    ;  uncertainty k = 0.865255
         9        10        11        12     9        0.000000        1.658617         3    ;  uncertainty k = 0.387465
         9        10        11        12     9      180.000000       -0.170489         4    ;  uncertainty k = 0.236446
         9        10        11        15     9        0.000000       -0.248944         1    ;  uncertainty k = 1.669287
         9        10        11        15     9      180.000000        6.161827         2    ;  uncertainty k = 1.110762
         9        10        11        15     9        0.000000        0.670927         3    ;  uncertainty k = 0.347090
         9        10        11        15     9      180.000000       -1.488831         4    ;  uncertainty k = 0.506459
         9        10        11        40     9        0.000000        0.565924         1    ;  uncertainty k = 0.856652
         9        10        11        40     9      180.000000        1.324273         2    ;  uncertainty k = 0.513614
         9        10        11        40     9        0.000000        1.171168         3    ;  uncertainty k = 0.217599
         9        10        11        40     9      180.000000       -0.072433         4    ;  uncertainty k = 0.184790
         9        16        15        11     9        0.000000       -0.248943         1    ;  uncertainty k = 1.669287
         9        16        15        11     9      180.000000        6.161829         2    ;  uncertainty k = 1.110761
         9        16        15        11     9        0.000000        0.670927         3    ;  uncertainty k = 0.347090
         9        16        15        11     9      180.000000       -1.488831         4    ;  uncertainty k = 0.506459
         9        16        15        14     9        0.000000       -1.986983         1    ;  uncertainty k = 1.131581
         9        16        15        14     9      180.000000        0.974419         2    ;  uncertainty k = 0.865256
         9        16        15        14     9        0.000000        1.658617         3    ;  uncertainty k = 0.387464
         9        16        15        14     9      180.000000       -0.170489         4    ;  uncertainty k = 0.236446
         9        16        15        45     9        0.000000        0.565926         1    ;  uncertainty k = 0.856651
         9        16        15        45     9      180.000000        1.324272         2    ;  uncertainty k = 0.513614
         9        16        15        45     9        0.000000        1.171168         3    ;  uncertainty k = 0.217601
         9        16        15        45     9      180.000000       -0.072433         4    ;  uncertainty k = 0.184790
        10         9        16        15     9        0.000000        0.409930         1    ;  uncertainty k = 1.033845
        10         9        16        15     9      180.000000        1.423325         2    ;  uncertainty k = 1.181231
        10         9        16        15     9        0.000000        0.860226         3    ;  uncertainty k = 0.332034
        10         9        16        15     9      180.000000        0.010765         4    ;  uncertainty k = 0.168707
        10         9        16        46     9        0.000000       -2.106813         1    ;  uncertainty k = 0.722683
        10         9        16        46     9      180.000000        1.271153         2    ;  uncertainty k = 0.391419
        10         9        16        46     9        0.000000        1.144989         3    ;  uncertainty k = 0.081016
        10         9        16        46     9      180.000000        0.249969         4    ;  uncertainty k = 0.124009
        10         9        16        47     9        0.000000       -2.106813         1    ;  uncertainty k = 0.722683
        10         9        16        47     9      180.000000        1.271153         2    ;  uncertainty k = 0.391419
        10         9        16        47     9        0.000000        1.144989         3    ;  uncertainty k = 0.081016
        10         9        16        47     9      180.000000        0.249969         4    ;  uncertainty k = 0.124009
        10        11        12        13     9        0.000000       -2.553642         1    ;  uncertainty k = 1.026054
        10        11        12        13     9      180.000000       -0.018661         2    ;  uncertainty k = 0.745822
        10        11        12        13     9        0.000000        1.607209         3    ;  uncertainty k = 0.236201
        10        11        12        13     9      180.000000       -0.188588         4    ;  uncertainty k = 0.120205
        10        11        12        41     9        0.000000       -0.498818         1    ;  uncertainty k = 0.107247
        10        11        12        41     9      180.000000       -0.409706         2    ;  uncertainty k = 0.197166
        10        11        12        41     9        0.000000        0.564543         3    ;  uncertainty k = 0.186998
        10        11        12        41     9      180.000000       -0.072177         4    ;  uncertainty k = 0.062323
        10        11        12        42     9        0.000000       -0.498818         1    ;  uncertainty k = 0.107247
        10        11        12        42     9      180.000000       -0.409706         2    ;  uncertainty k = 0.197166
        10        11        12        42     9        0.000000        0.564543         3    ;  uncertainty k = 0.186998
        10        11        12        42     9      180.000000       -0.072177         4    ;  uncertainty k = 0.062323
        10        11        15        14     9        0.000000       -3.847150         1    ;  uncertainty k = 0.842081
        10        11        15        14     9      180.000000        0.994502         2    ;  uncertainty k = 1.017626
        10        11        15        14     9        0.000000        1.189094         3    ;  uncertainty k = 0.581588
        10        11        15        14     9      180.000000       -0.416044         4    ;  uncertainty k = 0.334399
        10        11        15        16     9        0.000000       -3.896618         1    ;  uncertainty k = 1.087275
        10        11        15        16     9      180.000000        1.035025         2    ;  uncertainty k = 1.026286
        10        11        15        16     9        0.000000        1.207838         3    ;  uncertainty k = 0.671623
        10        11        15        16     9      180.000000       -0.436931         4    ;  uncertainty k = 0.343366
        10        11        15        45     9        0.000000       -1.223112         1    ;  uncertainty k = 0.611377
        10        11        15        45     9      180.000000        0.489634         2    ;  uncertainty k = 0.414978
        10        11        15        45     9        0.000000        0.997353         3    ;  uncertainty k = 0.241670
        10        11        15        45     9      180.000000        0.066778         4    ;  uncertainty k = 0.087125
        11        10         9        16     9        0.000000        0.409931         1    ;  uncertainty k = 1.033845
        11        10         9        16     9      180.000000        1.423324         2    ;  uncertainty k = 1.181232
        11        10         9        16     9        0.000000        0.860226         3    ;  uncertainty k = 0.332034
        11        10         9        16     9      180.000000        0.010765         4    ;  uncertainty k = 0.168708
        11        12        13        14     9        0.000000       -0.577894         1    ;  uncertainty k = 0.965263
        11        12        13        14     9      180.000000        0.209543         2    ;  uncertainty k = 0.707884
        11        12        13        14     9        0.000000        0.796577         3    ;  uncertainty k = 0.216244
        11        12        13        14     9      180.000000        0.149599         4    ;  uncertainty k = 0.256658
        11        12        13        17     9        0.000000       -0.157374         1    ;  uncertainty k = 0.797381
        11        12        13        17     9      180.000000       -0.500407         2    ;  uncertainty k = 0.354393
        11        12        13        17     9        0.000000        0.225200         3    ;  uncertainty k = 0.295046
        11        12        13        17     9      180.000000        0.738274         4    ;  uncertainty k = 0.139560
        11        15        14        13     9        0.000000       -0.756384         1    ;  uncertainty k = 0.691038
        11        15        14        13     9      180.000000        5.856437         2    ;  uncertainty k = 0.964493
        11        15        14        13     9        0.000000        0.445306         3    ;  uncertainty k = 0.293243
        11        15        14        13     9      180.000000       -1.144824         4    ;  uncertainty k = 0.220768
        11        15        14        43     9        0.000000        0.480411         1    ;  uncertainty k = 0.492791
        11        15        14        43     9      180.000000       -1.104496         2    ;  uncertainty k = 0.672329
        11        15        14        43     9        0.000000       -0.270073         3    ;  uncertainty k = 0.170671
        11        15        14        43     9      180.000000       -0.013160         4    ;  uncertainty k = 0.174221
        11        15        14        44     9        0.000000        0.480411         1    ;  uncertainty k = 0.492791
        11        15        14        44     9      180.000000       -1.104496         2    ;  uncertainty k = 0.672329
        11        15        14        44     9        0.000000       -0.270073         3    ;  uncertainty k = 0.170671
        11        15        14        44     9      180.000000       -0.013160         4    ;  uncertainty k = 0.174221
        11        15        16        46     9        0.000000        0.646621         1    ;  uncertainty k = 0.517783
        11        15        16        46     9      180.000000       -1.099688         2    ;  uncertainty k = 0.743824
        11        15        16        46     9        0.000000       -0.334779         3    ;  uncertainty k = 0.213643
        11        15        16        46     9      180.000000       -0.018734         4    ;  uncertainty k = 0.206092
        11        15        16        47     9        0.000000        0.646621         1    ;  uncertainty k = 0.517783
        11        15        16        47     9      180.000000       -1.099688         2    ;  uncertainty k = 0.743824
        11        15        16        47     9        0.000000       -0.334779         3    ;  uncertainty k = 0.213643
        11        15        16        47     9      180.000000       -0.018734         4    ;  uncertainty k = 0.206092
        12        11        10        38     9        0.000000       -0.670734         1    ;  uncertainty k = 0.233995
        12        11        10        38     9      180.000000       -0.386310         2    ;  uncertainty k = 0.258590
        12        11        10        38     9        0.000000        0.557637         3    ;  uncertainty k = 0.179621
        12        11        10        38     9      180.000000       -0.081826         4    ;  uncertainty k = 0.095492
        12        11        10        39     9        0.000000       -0.670734         1    ;  uncertainty k = 0.233995
        12        11        10        39     9      180.000000       -0.386310         2    ;  uncertainty k = 0.258590
        12        11        10        39     9        0.000000        0.557637         3    ;  uncertainty k = 0.179621
        12        11        10        39     9      180.000000       -0.081826         4    ;  uncertainty k = 0.095492
        12        11        15        14     9        0.000000       -3.717091         1    ;  uncertainty k = 0.646014
        12        11        15        14     9      180.000000        0.952705         2    ;  uncertainty k = 0.984304
        12        11        15        14     9        0.000000        1.178983         3    ;  uncertainty k = 0.499657
        12        11        15        14     9      180.000000       -0.410261         4    ;  uncertainty k = 0.338854
        12        11        15        16     9        0.000000       -3.847151         1    ;  uncertainty k = 0.842082
        12        11        15        16     9      180.000000        0.994504         2    ;  uncertainty k = 1.017625
        12        11        15        16     9        0.000000        1.189094         3    ;  uncertainty k = 0.581588
        12        11        15        16     9      180.000000       -0.416044         4    ;  uncertainty k = 0.334399
        12        11        15        45     9        0.000000       -1.291634         1    ;  uncertainty k = 0.560343
        12        11        15        45     9      180.000000        0.594321         2    ;  uncertainty k = 0.368266
        12        11        15        45     9        0.000000        1.030260         3    ;  uncertainty k = 0.246250
        12        11        15        45     9      180.000000        0.081405         4    ;  uncertainty k = 0.059901
        12        13        14        15     9        0.000000       -0.577894         1    ;  uncertainty k = 0.965264
        12        13        14        15     9      180.000000        0.209542         2    ;  uncertainty k = 0.707883
        12        13        14        15     9        0.000000        0.796577         3    ;  uncertainty k = 0.216244
        12        13        14        15     9      180.000000        0.149599         4    ;  uncertainty k = 0.256658
        12        13        14        43     9        0.000000       -1.853142         1    ;  uncertainty k = 0.582033
        12        13        14        43     9      180.000000        1.033698         2    ;  uncertainty k = 0.450442
        12        13        14        43     9        0.000000        1.252345         3    ;  uncertainty k = 0.140560
        12        13        14        43     9      180.000000        0.292848         4    ;  uncertainty k = 0.121326
        12        13        14        44     9        0.000000       -1.853142         1    ;  uncertainty k = 0.582033
        12        13        14        44     9      180.000000        1.033698         2    ;  uncertainty k = 0.450442
        12        13        14        44     9        0.000000        1.252345         3    ;  uncertainty k = 0.140560
        12        13        14        44     9      180.000000        0.292848         4    ;  uncertainty k = 0.121326
        12        13        17        18     9        0.000000        6.003779         1    ;  uncertainty k = 0.439075
        12        13        17        18     9      180.000000       16.812406         2    ;  uncertainty k = 0.193141
        12        13        17        18     9        0.000000        0.191242         3    ;  uncertainty k = 0.101822
        12        13        17        18     9      180.000000       -1.053218         4    ;  uncertainty k = 0.147926
        12        13        17        19     9        0.000000        3.413714         1    ;  uncertainty k = 1.248926
        12        13        17        19     9      180.000000        8.513587         2    ;  uncertainty k = 0.336592
        12        13        17        19     9        0.000000        1.783805         3    ;  uncertainty k = 0.347637
        12        13        17        19     9      180.000000        0.079515         4    ;  uncertainty k = 0.243740
        13        12        11        15     9        0.000000       -0.756383         1    ;  uncertainty k = 0.691039
        13        12        11        15     9      180.000000        5.856438         2    ;  uncertainty k = 0.964489
        13        12        11        15     9        0.000000        0.445306         3    ;  uncertainty k = 0.293243
        13        12        11        15     9      180.000000       -1.144824         4    ;  uncertainty k = 0.220768
        13        12        11        40     9        0.000000        0.134769         1    ;  uncertainty k = 0.685952
        13        12        11        40     9      180.000000        0.831761         2    ;  uncertainty k = 0.416184
        13        12        11        40     9        0.000000        1.099682         3    ;  uncertainty k = 0.160463
        13        12        11        40     9      180.000000       -0.068376         4    ;  uncertainty k = 0.100460
        13        14        15        16     9        0.000000       -2.553641         1    ;  uncertainty k = 1.026052
        13        14        15        16     9      180.000000       -0.018662         2    ;  uncertainty k = 0.745823
        13        14        15        16     9        0.000000        1.607209         3    ;  uncertainty k = 0.236202
        13        14        15        16     9      180.000000       -0.188588         4    ;  uncertainty k = 0.120204
        13        14        15        45     9        0.000000        0.134769         1    ;  uncertainty k = 0.685952
        13        14        15        45     9      180.000000        0.831760         2    ;  uncertainty k = 0.416184
        13        14        15        45     9        0.000000        1.099681         3    ;  uncertainty k = 0.160462
        13        14        15        45     9      180.000000       -0.068376         4    ;  uncertainty k = 0.100460
        13        17        19        20     9        0.000000        1.672517         1    ;  uncertainty k = 1.059997
        13        17        19        20     9      180.000000        5.164248         2    ;  uncertainty k = 0.355683
        13        17        19        20     9        0.000000        0.276860         3    ;  uncertainty k = 0.220204
        13        17        19        20     9      180.000000        0.339260         4    ;  uncertainty k = 0.130527
        13        17        19        25     9        0.000000        2.614854         1    ;  uncertainty k = 0.922494
        13        17        19        25     9      180.000000        6.153701         2    ;  uncertainty k = 0.208286
        13        17        19        25     9        0.000000        0.046775         3    ;  uncertainty k = 0.080128
        13        17        19        25     9      180.000000        0.473386         4    ;  uncertainty k = 0.172440
        14        13        12        41     9        0.000000       -1.853141         1    ;  uncertainty k = 0.582034
        14        13        12        41     9      180.000000        1.033695         2    ;  uncertainty k = 0.450442
        14        13        12        41     9        0.000000        1.252346         3    ;  uncertainty k = 0.140560
        14        13        12        41     9      180.000000        0.292848         4    ;  uncertainty k = 0.121326
        14        13        12        42     9        0.000000       -1.853141         1    ;  uncertainty k = 0.582034
        14        13        12        42     9      180.000000        1.033695         2    ;  uncertainty k = 0.450442
        14        13        12        42     9        0.000000        1.252346         3    ;  uncertainty k = 0.140560
        14        13        12        42     9      180.000000        0.292848         4    ;  uncertainty k = 0.121326
        14        13        17        18     9        0.000000        6.003779         1    ;  uncertainty k = 0.439077
        14        13        17        18     9      180.000000       16.812406         2    ;  uncertainty k = 0.193142
        14        13        17        18     9        0.000000        0.191242         3    ;  uncertainty k = 0.101822
        14        13        17        18     9      180.000000       -1.053218         4    ;  uncertainty k = 0.147926
        14        13        17        19     9        0.000000        3.413714         1    ;  uncertainty k = 1.248925
        14        13        17        19     9      180.000000        8.513587         2    ;  uncertainty k = 0.336594
        14        13        17        19     9        0.000000        1.783806         3    ;  uncertainty k = 0.347638
        14        13        17        19     9      180.000000        0.079515         4    ;  uncertainty k = 0.243740
        14        15        11        40     9        0.000000       -1.291633         1    ;  uncertainty k = 0.560343
        14        15        11        40     9      180.000000        0.594321         2    ;  uncertainty k = 0.368268
        14        15        11        40     9        0.000000        1.030260         3    ;  uncertainty k = 0.246250
        14        15        11        40     9      180.000000        0.081405         4    ;  uncertainty k = 0.059900
        14        15        16        46     9        0.000000       -0.670733         1    ;  uncertainty k = 0.233996
        14        15        16        46     9      180.000000       -0.386309         2    ;  uncertainty k = 0.258591
        14        15        16        46     9        0.000000        0.557638         3    ;  uncertainty k = 0.179621
        14        15        16        46     9      180.000000       -0.081826         4    ;  uncertainty k = 0.095492
        14        15        16        47     9        0.000000       -0.670733         1    ;  uncertainty k = 0.233996
        14        15        16        47     9      180.000000       -0.386309         2    ;  uncertainty k = 0.258591
        14        15        16        47     9        0.000000        0.557638         3    ;  uncertainty k = 0.179621
        14        15        16        47     9      180.000000       -0.081826         4    ;  uncertainty k = 0.095492
        15        11        10        38     9        0.000000        0.646621         1    ;  uncertainty k = 0.517781
        15        11        10        38     9      180.000000       -1.099689         2    ;  uncertainty k = 0.743823
        15        11        10        38     9        0.000000       -0.334778         3    ;  uncertainty k = 0.213644
        15        11        10        38     9      180.000000       -0.018734         4    ;  uncertainty k = 0.206091
        15        11        10        39     9        0.000000        0.646621         1    ;  uncertainty k = 0.517781
        15        11        10        39     9      180.000000       -1.099689         2    ;  uncertainty k = 0.743823
        15        11        10        39     9        0.000000       -0.334778         3    ;  uncertainty k = 0.213644
        15        11        10        39     9      180.000000       -0.018734         4    ;  uncertainty k = 0.206091
        15        11        12        41     9        0.000000        0.480411         1    ;  uncertainty k = 0.492791
        15        11        12        41     9      180.000000       -1.104495         2    ;  uncertainty k = 0.672328
        15        11        12        41     9        0.000000       -0.270073         3    ;  uncertainty k = 0.170671
        15        11        12        41     9      180.000000       -0.013161         4    ;  uncertainty k = 0.174221
        15        11        12        42     9        0.000000        0.480411         1    ;  uncertainty k = 0.492791
        15        11        12        42     9      180.000000       -1.104495         2    ;  uncertainty k = 0.672328
        15        11        12        42     9        0.000000       -0.270073         3    ;  uncertainty k = 0.170671
        15        11        12        42     9      180.000000       -0.013161         4    ;  uncertainty k = 0.174221
        15        14        13        17     9        0.000000       -0.157374         1    ;  uncertainty k = 0.797382
        15        14        13        17     9      180.000000       -0.500406         2    ;  uncertainty k = 0.354392
        15        14        13        17     9        0.000000        0.225200         3    ;  uncertainty k = 0.295047
        15        14        13        17     9      180.000000        0.738274         4    ;  uncertainty k = 0.139560
        16         9        10        38     9        0.000000       -2.106814         1    ;  uncertainty k = 0.722683
        16         9        10        38     9      180.000000        1.271154         2    ;  uncertainty k = 0.391419
        16         9        10        38     9        0.000000        1.144989         3    ;  uncertainty k = 0.081016
        16         9        10        38     9      180.000000        0.249969         4    ;  uncertainty k = 0.124009
        16         9        10        39     9        0.000000       -2.106814         1    ;  uncertainty k = 0.722683
        16         9        10        39     9      180.000000        1.271154         2    ;  uncertainty k = 0.391419
        16         9        10        39     9        0.000000        1.144989         3    ;  uncertainty k = 0.081016
        16         9        10        39     9      180.000000        0.249969         4    ;  uncertainty k = 0.124009
        16        15        11        40     9        0.000000       -1.223110         1    ;  uncertainty k = 0.611378
        16        15        11        40     9      180.000000        0.489635         2    ;  uncertainty k = 0.414979
        16        15        11        40     9        0.000000        0.997353         3    ;  uncertainty k = 0.241669
        16        15        11        40     9      180.000000        0.066778         4    ;  uncertainty k = 0.087125
        16        15        14        43     9        0.000000       -0.498818         1    ;  uncertainty k = 0.107248
        16        15        14        43     9      180.000000       -0.409705         2    ;  uncertainty k = 0.197166
        16        15        14        43     9        0.000000        0.564544         3    ;  uncertainty k = 0.186998
        16        15        14        43     9      180.000000       -0.072177         4    ;  uncertainty k = 0.062323
        16        15        14        44     9        0.000000       -0.498818         1    ;  uncertainty k = 0.107248
        16        15        14        44     9      180.000000       -0.409705         2    ;  uncertainty k = 0.197166
        16        15        14        44     9        0.000000        0.564544         3    ;  uncertainty k = 0.186998
        16        15        14        44     9      180.000000       -0.072177         4    ;  uncertainty k = 0.062323
        17        13        12        41     9        0.000000        1.407671         1    ;  uncertainty k = 0.707610
        17        13        12        41     9      180.000000        0.117431         2    ;  uncertainty k = 0.122171
        17        13        12        41     9        0.000000        0.019472         3    ;  uncertainty k = 0.108455
        17        13        12        41     9      180.000000        0.263218         4    ;  uncertainty k = 0.064131
        17        13        12        42     9        0.000000        1.407671         1    ;  uncertainty k = 0.707610
        17        13        12        42     9      180.000000        0.117431         2    ;  uncertainty k = 0.122171
        17        13        12        42     9        0.000000        0.019472         3    ;  uncertainty k = 0.108455
        17        13        12        42     9      180.000000        0.263218         4    ;  uncertainty k = 0.064131
        17        13        14        43     9        0.000000        1.407670         1    ;  uncertainty k = 0.707609
        17        13        14        43     9      180.000000        0.117431         2    ;  uncertainty k = 0.122172
        17        13        14        43     9        0.000000        0.019472         3    ;  uncertainty k = 0.108456
        17        13        14        43     9      180.000000        0.263218         4    ;  uncertainty k = 0.064131
        17        13        14        44     9        0.000000        1.407670         1    ;  uncertainty k = 0.707609
        17        13        14        44     9      180.000000        0.117431         2    ;  uncertainty k = 0.122172
        17        13        14        44     9        0.000000        0.019472         3    ;  uncertainty k = 0.108456
        17        13        14        44     9      180.000000        0.263218         4    ;  uncertainty k = 0.064131
        17        19        20        21     9        0.000000        0.426345         1    ;  uncertainty k = 0.438129
        17        19        20        21     9      180.000000        9.351850         2    ;  uncertainty k = 0.731042
        17        19        20        21     9        0.000000        1.251207         3    ;  uncertainty k = 0.129708
        17        19        20        21     9      180.000000        1.924696         4    ;  uncertainty k = 0.309184
        17        19        20        48     9        0.000000        0.232582         1    ;  uncertainty k = 0.370557
        17        19        20        48     9      180.000000        8.817743         2    ;  uncertainty k = 0.597455
        17        19        20        48     9        0.000000        0.838522         3    ;  uncertainty k = 0.190408
        17        19        20        48     9      180.000000        1.291699         4    ;  uncertainty k = 0.237213
        17        19        25        23     9        0.000000        0.120800         1    ;  uncertainty k = 0.152626
        17        19        25        23     9      180.000000        6.583554         2    ;  uncertainty k = 0.698927
        17        19        25        23     9        0.000000        1.437119         3    ;  uncertainty k = 0.189912
        17        19        25        23     9      180.000000        1.708453         4    ;  uncertainty k = 0.276941
        17        19        25        26     9        0.000000        0.000080         1    ;  uncertainty k = 0.882986
        17        19        25        26     9      180.000000       10.258506         2    ;  uncertainty k = 0.354155
        17        19        25        26     9        0.000000        1.308891         3    ;  uncertainty k = 0.571775
        17        19        25        26     9      180.000000        1.253816         4    ;  uncertainty k = 0.335057
        18        17        19        20     9        0.000000       -2.201557         1    ;  uncertainty k = 0.352165
        18        17        19        20     9      180.000000        4.413856         2    ;  uncertainty k = 0.548131
        18        17        19        20     9        0.000000        0.452045         3    ;  uncertainty k = 0.106938
        18        17        19        20     9      180.000000        0.366747         4    ;  uncertainty k = 0.180990
        18        17        19        25     9        0.000000       -4.787452         1    ;  uncertainty k = 1.341688
        18        17        19        25     9      180.000000        6.095146         2    ;  uncertainty k = 0.368581
        18        17        19        25     9        0.000000        0.479984         3    ;  uncertainty k = 0.502698
        18        17        19        25     9      180.000000        0.557319         4    ;  uncertainty k = 0.225259
        19        20        21        22     9        0.000000       -0.060473         1    ;  uncertainty k = 0.279616
        19        20        21        22     9      180.000000       13.591156         2    ;  uncertainty k = 0.404708
        19        20        21        22     9        0.000000       -0.936307         3    ;  uncertainty k = 0.381416
        19        20        21        22     9      180.000000        0.696115         4    ;  uncertainty k = 0.274834
        19        20        21        49     9        0.000000       -0.064273         1    ;  uncertainty k = 0.238458
        19        20        21        49     9      180.000000        7.814302         2    ;  uncertainty k = 0.586039
        19        20        21        49     9        0.000000        1.140847         3    ;  uncertainty k = 0.306865
        19        20        21        49     9      180.000000        1.743620         4    ;  uncertainty k = 0.214463
        19        25        23        22     9        0.000000       -0.200754         1    ;  uncertainty k = 0.708665
        19        25        23        22     9      180.000000        6.924526         2    ;  uncertainty k = 0.772275
        19        25        23        22     9        0.000000        0.538764         3    ;  uncertainty k = 0.092127
        19        25        23        22     9      180.000000        1.282930         4    ;  uncertainty k = 0.361411
        19        25        23        24     9        0.000000        0.077383         1    ;  uncertainty k = 0.369838
        19        25        23        24     9      180.000000        7.294463         2    ;  uncertainty k = 0.426095
        19        25        23        24     9        0.000000        1.246750         3    ;  uncertainty k = 0.135670
        19        25        23        24     9      180.000000        1.666530         4    ;  uncertainty k = 0.285664
        19        25        26        27     9        0.000000       -1.133489         1    ;  uncertainty k = 1.829269
        19        25        26        27     9      180.000000        4.531948         2    ;  uncertainty k = 0.312087
        19        25        26        27     9        0.000000        0.586541         3    ;  uncertainty k = 0.196269
        19        25        26        27     9      180.000000        0.082178         4    ;  uncertainty k = 0.136189
        19        25        26        30     9        0.000000       -1.133489         1    ;  uncertainty k = 1.829269
        19        25        26        30     9      180.000000        4.531948         2    ;  uncertainty k = 0.312087
        19        25        26        30     9        0.000000        0.586541         3    ;  uncertainty k = 0.196269
        19        25        26        30     9      180.000000        0.082178         4    ;  uncertainty k = 0.136189
        20        19        25        23     9        0.000000       -0.528176         1    ;  uncertainty k = 0.508616
        20        19        25        23     9      180.000000        6.773615         2    ;  uncertainty k = 0.985173
        20        19        25        23     9        0.000000        0.326919         3    ;  uncertainty k = 0.358609
        20        19        25        23     9      180.000000        1.237501         4    ;  uncertainty k = 0.208227
        20        19        25        26     9        0.000000        0.336917         1    ;  uncertainty k = 0.438494
        20        19        25        26     9      180.000000       10.605898         2    ;  uncertainty k = 0.296346
        20        19        25        26     9        0.000000        1.175021         3    ;  uncertainty k = 0.153107
        20        19        25        26     9      180.000000        1.480463         4    ;  uncertainty k = 0.225707
        20        21        22        23     9        0.000000       -0.187976         1    ;  uncertainty k = 0.259941
        20        21        22        23     9      180.000000       13.506780         2    ;  uncertainty k = 0.282961
        20        21        22        23     9        0.000000       -0.879365         3    ;  uncertainty k = 0.463190
        20        21        22        23     9      180.000000        0.743779         4    ;  uncertainty k = 0.204260
        20        21        22        50     9        0.000000        0.022091         1    ;  uncertainty k = 0.282184
        20        21        22        50     9      180.000000        7.718571         2    ;  uncertainty k = 0.315739
        20        21        22        50     9        0.000000        1.342263         3    ;  uncertainty k = 0.264929
        20        21        22        50     9      180.000000        1.762853         4    ;  uncertainty k = 0.117195
        21        20        19        25     9        0.000000       -0.276398         1    ;  uncertainty k = 0.288298
        21        20        19        25     9      180.000000       10.614162         2    ;  uncertainty k = 0.249618
        21        20        19        25     9        0.000000       -0.065606         3    ;  uncertainty k = 0.247353
        21        20        19        25     9      180.000000        1.275577         4    ;  uncertainty k = 0.340911
        21        22        23        24     9        0.000000        0.065282         1    ;  uncertainty k = 0.095556
        21        22        23        24     9      180.000000       10.560339         2    ;  uncertainty k = 0.503580
        21        22        23        24     9        0.000000        1.212292         3    ;  uncertainty k = 0.175350
        21        22        23        24     9      180.000000        1.788650         4    ;  uncertainty k = 0.239284
        21        22        23        25     9        0.000000       -0.154694         1    ;  uncertainty k = 0.315093
        21        22        23        25     9      180.000000       10.989538         2    ;  uncertainty k = 0.335460
        21        22        23        25     9        0.000000       -0.101039         3    ;  uncertainty k = 0.472747
        21        22        23        25     9      180.000000        1.035730         4    ;  uncertainty k = 0.409240
        22        21        20        48     9        0.000000        0.029902         1    ;  uncertainty k = 0.109145
        22        21        20        48     9      180.000000        7.905448         2    ;  uncertainty k = 0.316026
        22        21        20        48     9        0.000000        1.234279         3    ;  uncertainty k = 0.298007
        22        21        20        48     9      180.000000        1.713234         4    ;  uncertainty k = 0.137432
        22        23        24        51     9        0.000000       -0.153748         1    ;  uncertainty k = 0.249869
        22        23        24        51     9      180.000000        1.730640         2    ;  uncertainty k = 0.276117
        22        23        24        51     9        0.000000        0.365987         3    ;  uncertainty k = 0.044475
        22        23        24        51     9      180.000000        0.247526         4    ;  uncertainty k = 0.023225
        22        23        24        52     9        0.000000       -0.153748         1    ;  uncertainty k = 0.249869
        22        23        24        52     9      180.000000        1.730640         2    ;  uncertainty k = 0.276117
        22        23        24        52     9        0.000000        0.365987         3    ;  uncertainty k = 0.044475
        22        23        24        52     9      180.000000        0.247526         4    ;  uncertainty k = 0.023225
        22        23        24        53     9        0.000000       -0.153748         1    ;  uncertainty k = 0.249869
        22        23        24        53     9      180.000000        1.730640         2    ;  uncertainty k = 0.276117
        22        23        24        53     9        0.000000        0.365987         3    ;  uncertainty k = 0.044475
        22        23        24        53     9      180.000000        0.247526         4    ;  uncertainty k = 0.023225
        22        23        25        26     9        0.000000        0.424440         1    ;  uncertainty k = 0.297886
        22        23        25        26     9      180.000000       11.096610         2    ;  uncertainty k = 0.327946
        22        23        25        26     9        0.000000        1.117176         3    ;  uncertainty k = 0.204518
        22        23        25        26     9      180.000000        1.541854         4    ;  uncertainty k = 0.194166
        23        22        21        49     9        0.000000        0.143101         1    ;  uncertainty k = 0.171916
        23        22        21        49     9      180.000000        6.997845         2    ;  uncertainty k = 0.281668
        23        22        21        49     9        0.000000        1.391382         3    ;  uncertainty k = 0.225289
        23        22        21        49     9      180.000000        1.803294         4    ;  uncertainty k = 0.075623
        23        25        26        27     9        0.000000        2.321051         1    ;  uncertainty k = 0.949083
        23        25        26        27     9      180.000000        4.119819         2    ;  uncertainty k = 0.532346
        23        25        26        27     9        0.000000        0.877286         3    ;  uncertainty k = 0.150013
        23        25        26        27     9      180.000000        0.134584         4    ;  uncertainty k = 0.087657
        23        25        26        30     9        0.000000        2.321051         1    ;  uncertainty k = 0.949083
        23        25        26        30     9      180.000000        4.119819         2    ;  uncertainty k = 0.532346
        23        25        26        30     9        0.000000        0.877286         3    ;  uncertainty k = 0.150013
        23        25        26        30     9      180.000000        0.134584         4    ;  uncertainty k = 0.087657
        24        23        22        50     9        0.000000       -0.180563         1    ;  uncertainty k = 0.338646
        24        23        22        50     9      180.000000        8.358703         2    ;  uncertainty k = 0.341308
        24        23        22        50     9        0.000000        0.462892         3    ;  uncertainty k = 0.283008
        24        23        22        50     9      180.000000        1.126562         4    ;  uncertainty k = 0.176993
        24        23        25        26     9        0.000000       -0.000175         1    ;  uncertainty k = 0.833341
        24        23        25        26     9      180.000000       12.134837         2    ;  uncertainty k = 0.643833
        24        23        25        26     9        0.000000        0.886054         3    ;  uncertainty k = 0.367699
        24        23        25        26     9      180.000000        1.288871         4    ;  uncertainty k = 0.399046
        25        19        20        48     9        0.000000        0.180623         1    ;  uncertainty k = 0.449047
        25        19        20        48     9      180.000000        7.683505         2    ;  uncertainty k = 0.518657
        25        19        20        48     9        0.000000        1.148590         3    ;  uncertainty k = 0.142775
        25        19        20        48     9      180.000000        1.642041         4    ;  uncertainty k = 0.178902
        25        23        22        50     9        0.000000        0.155982         1    ;  uncertainty k = 0.400868
        25        23        22        50     9      180.000000        7.566128         2    ;  uncertainty k = 0.531337
        25        23        22        50     9        0.000000        1.270905         3    ;  uncertainty k = 0.292996
        25        23        22        50     9      180.000000        1.565634         4    ;  uncertainty k = 0.180506
        25        23        24        51     9        0.000000        0.628880         1    ;  uncertainty k = 0.276234
        25        23        24        51     9      180.000000        2.094336         2    ;  uncertainty k = 0.275012
        25        23        24        51     9        0.000000        0.213429         3    ;  uncertainty k = 0.090497
        25        23        24        51     9      180.000000        0.278044         4    ;  uncertainty k = 0.063886
        25        23        24        52     9        0.000000        0.628880         1    ;  uncertainty k = 0.276234
        25        23        24        52     9      180.000000        2.094336         2    ;  uncertainty k = 0.275012
        25        23        24        52     9        0.000000        0.213429         3    ;  uncertainty k = 0.090497
        25        23        24        52     9      180.000000        0.278044         4    ;  uncertainty k = 0.063886
        25        23        24        53     9        0.000000        0.628880         1    ;  uncertainty k = 0.276234
        25        23        24        53     9      180.000000        2.094336         2    ;  uncertainty k = 0.275012
        25        23        24        53     9        0.000000        0.213429         3    ;  uncertainty k = 0.090497
        25        23        24        53     9      180.000000        0.278044         4    ;  uncertainty k = 0.063886
        25        26        27        28     9        0.000000        0.804002         1    ;  uncertainty k = 2.022222
        25        26        27        28     9      180.000000       14.315955         2    ;  uncertainty k = 0.521315
        25        26        27        28     9        0.000000        1.535104         3    ;  uncertainty k = 0.432766
        25        26        27        28     9      180.000000        0.004648         4    ;  uncertainty k = 0.332258
        25        26        30        29     9        0.000000        0.804002         1    ;  uncertainty k = 2.022222
        25        26        30        29     9      180.000000       14.315955         2    ;  uncertainty k = 0.521315
        25        26        30        29     9        0.000000        1.535104         3    ;  uncertainty k = 0.432766
        25        26        30        29     9      180.000000        0.004648         4    ;  uncertainty k = 0.332258
        26        27        28        29     9        0.000000        0.033256         1    ;  uncertainty k = 0.495961
        26        27        28        29     9      180.000000       24.500728         2    ;  uncertainty k = 0.380002
        26        27        28        29     9        0.000000       -9.963271         3    ;  uncertainty k = 1.678373
        26        27        28        29     9      180.000000        2.342780         4    ;  uncertainty k = 0.687561
        26        27        28        54     9        0.000000        0.204305         1    ;  uncertainty k = 0.690191
        26        27        28        54     9      180.000000       22.349661         2    ;  uncertainty k = 0.506897
        26        27        28        54     9        0.000000        1.236223         3    ;  uncertainty k = 0.380268
        26        27        28        54     9      180.000000        1.205889         4    ;  uncertainty k = 0.538309
        26        30        29        28     9        0.000000        0.033256         1    ;  uncertainty k = 0.495961
        26        30        29        28     9      180.000000       24.500728         2    ;  uncertainty k = 0.380002
        26        30        29        28     9        0.000000       -9.963271         3    ;  uncertainty k = 1.678373
        26        30        29        28     9      180.000000        2.342780         4    ;  uncertainty k = 0.687561
        26        30        29        55     9        0.000000        0.204305         1    ;  uncertainty k = 0.690191
        26        30        29        55     9      180.000000       22.349661         2    ;  uncertainty k = 0.506897
        26        30        29        55     9        0.000000        1.236223         3    ;  uncertainty k = 0.380268
        26        30        29        55     9      180.000000        1.205889         4    ;  uncertainty k = 0.538309
        27        26        30        29     9        0.000000       -0.810499         1    ;  uncertainty k = 0.683667
        27        26        30        29     9      180.000000       22.090136         2    ;  uncertainty k = 0.312172
        27        26        30        29     9        0.000000       -8.293963         3    ;  uncertainty k = 1.200331
        27        26        30        29     9      180.000000        1.245621         4    ;  uncertainty k = 0.670074
        27        28        29        30     9        0.000000       -0.467601         1    ;  uncertainty k = 1.027532
        27        28        29        30     9      180.000000       16.757050         2    ;  uncertainty k = 1.308332
        27        28        29        30     9        0.000000      -12.285959         3    ;  uncertainty k = 2.106183
        27        28        29        30     9      180.000000        1.964176         4    ;  uncertainty k = 0.765407
        27        28        29        55     9        0.000000        0.180027         1    ;  uncertainty k = 0.927611
        27        28        29        55     9      180.000000       11.836418         2    ;  uncertainty k = 0.640076
        27        28        29        55     9        0.000000        0.896840         3    ;  uncertainty k = 0.804970
        27        28        29        55     9      180.000000        0.629566         4    ;  uncertainty k = 0.179712
        28        27        26        30     9        0.000000       -0.810499         1    ;  uncertainty k = 0.683667
        28        27        26        30     9      180.000000       22.090136         2    ;  uncertainty k = 0.312172
        28        27        26        30     9        0.000000       -8.293963         3    ;  uncertainty k = 1.200331
        28        27        26        30     9      180.000000        1.245621         4    ;  uncertainty k = 0.670074
        30        29        28        54     9        0.000000        0.180027         1    ;  uncertainty k = 0.927611
        30        29        28        54     9      180.000000       11.836418         2    ;  uncertainty k = 0.640076
        30        29        28        54     9        0.000000        0.896840         3    ;  uncertainty k = 0.804970
        30        29        28        54     9      180.000000        0.629566         4    ;  uncertainty k = 0.179712
        38        10        11        40     9        0.000000        0.359872         1    ;  uncertainty k = 0.316166
        38        10        11        40     9      180.000000       -0.360044         2    ;  uncertainty k = 0.197279
        38        10        11        40     9        0.000000        0.364903         3    ;  uncertainty k = 0.128583
        38        10        11        40     9      180.000000       -0.036803         4    ;  uncertainty k = 0.081429
        39        10        11        40     9        0.000000        0.359872         1    ;  uncertainty k = 0.316166
        39        10        11        40     9      180.000000       -0.360044         2    ;  uncertainty k = 0.197279
        39        10        11        40     9        0.000000        0.364903         3    ;  uncertainty k = 0.128583
        39        10        11        40     9      180.000000       -0.036803         4    ;  uncertainty k = 0.081429
        40        11        12        41     9        0.000000        0.423998         1    ;  uncertainty k = 0.297943
        40        11        12        41     9      180.000000       -0.322771         2    ;  uncertainty k = 0.253711
        40        11        12        41     9        0.000000        0.343158         3    ;  uncertainty k = 0.128710
        40        11        12        41     9      180.000000       -0.041305         4    ;  uncertainty k = 0.061986
        40        11        12        42     9        0.000000        0.423998         1    ;  uncertainty k = 0.297943
        40        11        12        42     9      180.000000       -0.322771         2    ;  uncertainty k = 0.253711
        40        11        12        42     9        0.000000        0.343158         3    ;  uncertainty k = 0.128710
        40        11        12        42     9      180.000000       -0.041305         4    ;  uncertainty k = 0.061986
        40        11        15        45     9        0.000000        3.534566         1    ;  uncertainty k = 1.183407
        40        11        15        45     9      180.000000       -0.219654         2    ;  uncertainty k = 0.641097
        40        11        15        45     9        0.000000        0.578188         3    ;  uncertainty k = 0.579178
        40        11        15        45     9      180.000000        0.212498         4    ;  uncertainty k = 0.291708
        43        14        15        45     9        0.000000        0.424000         1    ;  uncertainty k = 0.297943
        43        14        15        45     9      180.000000       -0.322771         2    ;  uncertainty k = 0.253710
        43        14        15        45     9        0.000000        0.343158         3    ;  uncertainty k = 0.128710
        43        14        15        45     9      180.000000       -0.041305         4    ;  uncertainty k = 0.061986
        44        14        15        45     9        0.000000        0.424000         1    ;  uncertainty k = 0.297943
        44        14        15        45     9      180.000000       -0.322771         2    ;  uncertainty k = 0.253710
        44        14        15        45     9        0.000000        0.343158         3    ;  uncertainty k = 0.128710
        44        14        15        45     9      180.000000       -0.041305         4    ;  uncertainty k = 0.061986
        45        15        16        46     9        0.000000        0.359873         1    ;  uncertainty k = 0.316165
        45        15        16        46     9      180.000000       -0.360044         2    ;  uncertainty k = 0.197281
        45        15        16        46     9        0.000000        0.364903         3    ;  uncertainty k = 0.128582
        45        15        16        46     9      180.000000       -0.036803         4    ;  uncertainty k = 0.081429
        45        15        16        47     9        0.000000        0.359873         1    ;  uncertainty k = 0.316165
        45        15        16        47     9      180.000000       -0.360044         2    ;  uncertainty k = 0.197281
        45        15        16        47     9        0.000000        0.364903         3    ;  uncertainty k = 0.128582
        45        15        16        47     9      180.000000       -0.036803         4    ;  uncertainty k = 0.081429
        48        20        21        49     9        0.000000       -0.207545         1    ;  uncertainty k = 0.212853
        48        20        21        49     9      180.000000        7.757911         2    ;  uncertainty k = 0.334488
        48        20        21        49     9        0.000000       -0.373482         3    ;  uncertainty k = 0.256538
        48        20        21        49     9      180.000000        0.143393         4    ;  uncertainty k = 0.161103
        49        21        22        50     9        0.000000       -0.077013         1    ;  uncertainty k = 0.181871
        49        21        22        50     9      180.000000        7.948047         2    ;  uncertainty k = 0.335644
        49        21        22        50     9        0.000000       -0.467717         3    ;  uncertainty k = 0.342609
        49        21        22        50     9      180.000000        0.029329         4    ;  uncertainty k = 0.171300
        54        28        29        55     9        0.000000       -0.942648         1    ;  uncertainty k = 1.117582
        54        28        29        55     9      180.000000        4.272735         2    ;  uncertainty k = 0.760818
        54        28        29        55     9        0.000000        1.314863         3    ;  uncertainty k = 0.353594
        54        28        29        55     9      180.000000        0.150448         4    ;  uncertainty k = 0.159865

[ dihedrals ] ; impropers
;       ai        aj        ak        al funct           phase               k        pn
         2         1         3         8     4      180.000000       31.911121         2    ;  uncertainty k = 0.074029
         2         3         8         1     4      180.000000       31.911121         2    ;  uncertainty k = 0.074029
         2         8         1         3     4      180.000000       31.911121         2    ;  uncertainty k = 0.074029
         3         2         4        34     4      180.000000        1.149575         2    ;  uncertainty k = 0.472328
         3         4        34         2     4      180.000000        1.149575         2    ;  uncertainty k = 0.472328
         3        34         2         4     4      180.000000        1.149575         2    ;  uncertainty k = 0.472328
         4         3         5         6     4      180.000000       31.911121         2    ;  uncertainty k = 0.074029
         4         5         6         3     4      180.000000       31.911121         2    ;  uncertainty k = 0.074029
         4         6         3         5     4      180.000000       31.911121         2    ;  uncertainty k = 0.074029
         7         6         8         9     4      180.000000       42.641368         2    ;  uncertainty k = 0.061085
         7         8         9         6     4      180.000000       42.641368         2    ;  uncertainty k = 0.061085
         7         9         6         8     4      180.000000       42.641368         2    ;  uncertainty k = 0.061085
         9         7        10        16     4      180.000000        0.056062         2    ;  uncertainty k = 0.081767
         9        10        16         7     4      180.000000        0.056062         2    ;  uncertainty k = 0.081767
         9        16         7        10     4      180.000000        0.056062         2    ;  uncertainty k = 0.081767
        17        13        18        19     4      180.000000       51.619106         2    ;  uncertainty k = 0.080261
        17        18        19        13     4      180.000000       51.619106         2    ;  uncertainty k = 0.080261
        17        19        13        18     4      180.000000       51.619106         2    ;  uncertainty k = 0.080261
        19        17        20        25     4      180.000000        9.690200         2    ;  uncertainty k = 0.229421
        19        20        25        17     4      180.000000        9.690200         2    ;  uncertainty k = 0.229421
        19        25        17        20     4      180.000000        9.690200         2    ;  uncertainty k = 0.229421
        20        19        21        48     4      180.000000        3.623320         2    ;  uncertainty k = 0.081354
        20        21        48        19     4      180.000000        3.623320         2    ;  uncertainty k = 0.081354
        20        48        19        21     4      180.000000        3.623320         2    ;  uncertainty k = 0.081354
        21        20        22        49     4      180.000000        3.732806         2    ;  uncertainty k = 0.107735
        21        22        49        20     4      180.000000        3.732806         2    ;  uncertainty k = 0.107735
        21        49        20        22     4      180.000000        3.732806         2    ;  uncertainty k = 0.107735
        22        21        23        50     4      180.000000        3.596077         2    ;  uncertainty k = 0.182878
        22        23        50        21     4      180.000000        3.596077         2    ;  uncertainty k = 0.182878
        22        50        21        23     4      180.000000        3.596077         2    ;  uncertainty k = 0.182878
        23        22        24        25     4      180.000000       14.427836         2    ;  uncertainty k = 0.110225
        23        24        25        22     4      180.000000       14.427836         2    ;  uncertainty k = 0.110225
        23        25        22        24     4      180.000000       14.427836         2    ;  uncertainty k = 0.110225
        25        19        23        26     4      180.000000       11.911465         2    ;  uncertainty k = 0.295892
        25        23        26        19     4      180.000000       11.911465         2    ;  uncertainty k = 0.295892
        25        26        19        23     4      180.000000       11.911465         2    ;  uncertainty k = 0.295892
        26        25        27        30     4      180.000000        0.577606         2    ;  uncertainty k = 1.291567
        26        27        30        25     4      180.000000        0.577606         2    ;  uncertainty k = 1.291567
        26        30        25        27     4      180.000000        0.577606         2    ;  uncertainty k = 1.291567
        28        27        29        54     4      180.000000        0.495761         2    ;  uncertainty k = 0.504458
        28        29        54        27     4      180.000000        0.495761         2    ;  uncertainty k = 0.504458
        28        54        27        29     4      180.000000        0.495761         2    ;  uncertainty k = 0.504458
        29        28        30        55     4      180.000000        0.495761         2    ;  uncertainty k = 0.504458
        29        30        55        28     4      180.000000        0.495761         2    ;  uncertainty k = 0.504458
        29        55        28        30     4      180.000000        0.495761         2    ;  uncertainty k = 0.504458

[ pairs ]
;       ai        aj funct
         1         4     1
         1         7     1
         1        34     1
         2         5     1
         2         6     1
         2         9     1
         3         7     1
         3        31     1
         3        32     1
         3        33     1
         3        35     1
         3        36     1
         3        37     1
         4         8     1
         4         9     1
         5         7     1
         5        34     1
         6        10     1
         6        16     1
         6        34     1
         6        35     1
         6        36     1
         6        37     1
         7        11     1
         7        15     1
         7        38     1
         7        39     1
         7        46     1
         7        47     1
         8        10     1
         8        16     1
         8        31     1
         8        32     1
         8        33     1
         8        34     1
         9        12     1
         9        14     1
         9        40     1
         9        45     1
        10        13     1
        10        14     1
        10        41     1
        10        42     1
        10        45     1
        10        46     1
        10        47     1
        11        17     1
        11        43     1
        11        44     1
        11        46     1
        11        47     1
        12        16     1
        12        18     1
        12        19     1
        12        38     1
        12        39     1
        12        43     1
        12        44     1
        12        45     1
        13        16     1
        13        20     1
        13        25     1
        13        40     1
        13        45     1
        14        18     1
        14        19     1
        14        40     1
        14        41     1
        14        42     1
        14        46     1
        14        47     1
        15        17     1
        15        38     1
        15        39     1
        15        41     1
        15        42     1
        16        38     1
        16        39     1
        16        40     1
        16        43     1
        16        44     1
        17        21     1
        17        23     1
        17        26     1
        17        41     1
        17        42     1
        17        43     1
        17        44     1
        17        48     1
        18        20     1
        18        25     1
        19        22     1
        19        24     1
        19        27     1
        19        30     1
        19        49     1
        20        23     1
        20        26     1
        20        50     1
        21        24     1
        21        25     1
        22        26     1
        22        48     1
        22        51     1
        22        52     1
        22        53     1
        23        27     1
        23        30     1
        23        49     1
        24        26     1
        24        50     1
        25        28     1
        25        29     1
        25        48     1
        25        50     1
        25        51     1
        25        52     1
        25        53     1
        26        54     1
        26        55     1
        27        55     1
        30        54     1
        38        40     1
        39        40     1
        40        41     1
        40        42     1
        40        45     1
        43        45     1
        44        45     1
        45        46     1
        45        47     1
        48        49     1
        49        50     1
        54        55     1
