; ITP file created by ByteFF-joint-25, 2025-07-14 11:28:26.380672

[ atomtypes ]
;name           bonded.type        at.num        mass        charge   ptype           sigma         epsilon
 c0bf                                   6      0.0000       0.00000       A     3.39777e-01     4.51036e-01    ;  uncertainty sigma = 0.000005, epsilon = 0.000750
 o1bf                                   8      0.0000       0.00000       A     3.15686e-01     3.03429e-01    ;  uncertainty sigma = 0.000034, epsilon = 0.001474
 c2bf                                   6      0.0000       0.00000       A     3.31551e-01     4.13429e-01    ;  uncertainty sigma = 0.000023, epsilon = 0.000906
 c3bf                                   6      0.0000       0.00000       A     3.31534e-01     4.12904e-01    ;  uncertainty sigma = 0.000008, epsilon = 0.001368
 c4bf                                   6      0.0000       0.00000       A     3.31516e-01     4.13146e-01    ;  uncertainty sigma = 0.000013, epsilon = 0.000548
 c5bf                                   6      0.0000       0.00000       A     3.39775e-01     4.50917e-01    ;  uncertainty sigma = 0.000008, epsilon = 0.000650
 n6bf                                   7      0.0000       0.00000       A     3.38405e-01     3.93583e-01    ;  uncertainty sigma = 0.000015, epsilon = 0.000586
 c7bf                                   6      0.0000       0.00000       A     3.31540e-01     4.13243e-01    ;  uncertainty sigma = 0.000014, epsilon = 0.000697
 n8bf                                   7      0.0000       0.00000       A     3.38424e-01     3.93248e-01    ;  uncertainty sigma = 0.000013, epsilon = 0.001413
 n9bf                                   7      0.0000       0.00000       A     3.18947e-01     9.00100e-01    ;  uncertainty sigma = 0.000048, epsilon = 0.003773
 c10bf                                  6      0.0000       0.00000       A     3.39774e-01     4.50953e-01    ;  uncertainty sigma = 0.000012, epsilon = 0.001229
 c11bf                                  6      0.0000       0.00000       A     3.39776e-01     4.51373e-01    ;  uncertainty sigma = 0.000009, epsilon = 0.000969
 c12bf                                  6      0.0000       0.00000       A     3.39784e-01     4.51219e-01    ;  uncertainty sigma = 0.000006, epsilon = 0.000696
 n13bf                                  7      0.0000       0.00000       A     3.18086e-01     6.84039e-01    ;  uncertainty sigma = 0.000014, epsilon = 0.001467
 c14bf                                  6      0.0000       0.00000       A     3.39784e-01     4.51219e-01    ;  uncertainty sigma = 0.000006, epsilon = 0.000696
 c15bf                                  6      0.0000       0.00000       A     3.39776e-01     4.51373e-01    ;  uncertainty sigma = 0.000009, epsilon = 0.000969
 c16bf                                  6      0.0000       0.00000       A     3.39774e-01     4.50953e-01    ;  uncertainty sigma = 0.000012, epsilon = 0.001229
 c17bf                                  6      0.0000       0.00000       A     3.31486e-01     4.13134e-01    ;  uncertainty sigma = 0.000026, epsilon = 0.002146
 o18bf                                  8      0.0000       0.00000       A     3.04851e-01     6.12019e-01    ;  uncertainty sigma = 0.000026, epsilon = 0.001020
 c19bf                                  6      0.0000       0.00000       A     3.31488e-01     4.12415e-01    ;  uncertainty sigma = 0.000034, epsilon = 0.001171
 c20bf                                  6      0.0000       0.00000       A     3.31513e-01     4.12834e-01    ;  uncertainty sigma = 0.000016, epsilon = 0.001291
 f21bf                                  9      0.0000       0.00000       A     3.03451e-01     3.47872e-01    ;  uncertainty sigma = 0.000029, epsilon = 0.000470
 c22bf                                  6      0.0000       0.00000       A     3.31522e-01     4.13335e-01    ;  uncertainty sigma = 0.000005, epsilon = 0.000662
 c23bf                                  6      0.0000       0.00000       A     3.31521e-01     4.13421e-01    ;  uncertainty sigma = 0.000006, epsilon = 0.000781
 c24bf                                  6      0.0000       0.00000       A     3.31510e-01     4.13240e-01    ;  uncertainty sigma = 0.000014, epsilon = 0.000923
 c25bf                                  6      0.0000       0.00000       A     3.31553e-01     4.13601e-01    ;  uncertainty sigma = 0.000013, epsilon = 0.001582
 n26bf                                  7      0.0000       0.00000       A     3.20569e-01     8.54049e-01    ;  uncertainty sigma = 0.000030, epsilon = 0.002792
 n27bf                                  7      0.0000       0.00000       A     3.38413e-01     3.93694e-01    ;  uncertainty sigma = 0.000010, epsilon = 0.000693
 c28bf                                  6      0.0000       0.00000       A     3.31537e-01     4.13587e-01    ;  uncertainty sigma = 0.000007, epsilon = 0.000835
 c29bf                                  6      0.0000       0.00000       A     3.31537e-01     4.13587e-01    ;  uncertainty sigma = 0.000007, epsilon = 0.000835
 n30bf                                  7      0.0000       0.00000       A     3.38413e-01     3.93694e-01    ;  uncertainty sigma = 0.000010, epsilon = 0.000693
 h31bf                                  1      0.0000       0.00000       A     2.42204e-01     8.66227e-02    ;  uncertainty sigma = 0.000019, epsilon = 0.000473
 h32bf                                  1      0.0000       0.00000       A     2.42204e-01     8.66227e-02    ;  uncertainty sigma = 0.000019, epsilon = 0.000473
 h33bf                                  1      0.0000       0.00000       A     2.42204e-01     8.66227e-02    ;  uncertainty sigma = 0.000019, epsilon = 0.000473
 h34bf                                  1      0.0000       0.00000       A     2.62581e-01     6.71761e-02    ;  uncertainty sigma = 0.000019, epsilon = 0.000552
 h35bf                                  1      0.0000       0.00000       A     2.60034e-01     8.66332e-02    ;  uncertainty sigma = 0.000007, epsilon = 0.000537
 h36bf                                  1      0.0000       0.00000       A     2.60034e-01     8.66332e-02    ;  uncertainty sigma = 0.000007, epsilon = 0.000537
 h37bf                                  1      0.0000       0.00000       A     2.60034e-01     8.66332e-02    ;  uncertainty sigma = 0.000007, epsilon = 0.000537
 h38bf                                  1      0.0000       0.00000       A     2.42199e-01     8.66324e-02    ;  uncertainty sigma = 0.000024, epsilon = 0.001250
 h39bf                                  1      0.0000       0.00000       A     2.42199e-01     8.66324e-02    ;  uncertainty sigma = 0.000024, epsilon = 0.001250
 h40bf                                  1      0.0000       0.00000       A     2.59994e-01     8.68892e-02    ;  uncertainty sigma = 0.000026, epsilon = 0.000553
 h41bf                                  1      0.0000       0.00000       A     2.42194e-01     8.66543e-02    ;  uncertainty sigma = 0.000021, epsilon = 0.000863
 h42bf                                  1      0.0000       0.00000       A     2.42194e-01     8.66543e-02    ;  uncertainty sigma = 0.000021, epsilon = 0.000863
 h43bf                                  1      0.0000       0.00000       A     2.42194e-01     8.66545e-02    ;  uncertainty sigma = 0.000021, epsilon = 0.000863
 h44bf                                  1      0.0000       0.00000       A     2.42194e-01     8.66545e-02    ;  uncertainty sigma = 0.000021, epsilon = 0.000863
 h45bf                                  1      0.0000       0.00000       A     2.59994e-01     8.68892e-02    ;  uncertainty sigma = 0.000026, epsilon = 0.000553
 h46bf                                  1      0.0000       0.00000       A     2.42199e-01     8.66324e-02    ;  uncertainty sigma = 0.000024, epsilon = 0.001250
 h47bf                                  1      0.0000       0.00000       A     2.42199e-01     8.66324e-02    ;  uncertainty sigma = 0.000024, epsilon = 0.001250
 h48bf                                  1      0.0000       0.00000       A     2.62565e-01     6.70682e-02    ;  uncertainty sigma = 0.000010, epsilon = 0.000430
 h49bf                                  1      0.0000       0.00000       A     2.62565e-01     6.69658e-02    ;  uncertainty sigma = 0.000011, epsilon = 0.000532
 h50bf                                  1      0.0000       0.00000       A     2.62555e-01     6.71502e-02    ;  uncertainty sigma = 0.000013, epsilon = 0.000465
 h51bf                                  1      0.0000       0.00000       A     2.53604e-01     6.70805e-02    ;  uncertainty sigma = 0.000028, epsilon = 0.000600
 h52bf                                  1      0.0000       0.00000       A     2.53604e-01     6.70806e-02    ;  uncertainty sigma = 0.000028, epsilon = 0.000600

[ moleculetype ]
;name             nrexcl
 MOL                   3

[ atoms ]
;       nr            type      resi   res      atom      cgnr      charge          mass ; qtot
         1            c0bf         1   UNL        c0         1     0.13355       12.0110 ; qtot    0.134
         2            o1bf         1   UNL        o1         2    -0.43617       15.9990 ; qtot   -0.303
         3            c2bf         1   UNL        c2         3     0.69482       12.0110 ; qtot    0.392
         4            c3bf         1   UNL        c3         4    -0.43103       12.0110 ; qtot   -0.039
         5            c4bf         1   UNL        c4         5     0.50570       12.0110 ; qtot    0.467
         6            c5bf         1   UNL        c5         6    -0.15013       12.0110 ; qtot    0.317
         7            n6bf         1   UNL        n6         7    -0.79193       14.0070 ; qtot   -0.475
         8            c7bf         1   UNL        c7         8     0.93616       12.0110 ; qtot    0.461
         9            n8bf         1   UNL        n8         9    -0.84541       14.0070 ; qtot   -0.384
        10            n9bf         1   UNL        n9        10    -0.78947       14.0070 ; qtot   -1.174
        11           c10bf         1   UNL       c10        11     0.23516       12.0110 ; qtot   -0.939
        12           c11bf         1   UNL       c11        12    -0.09743       12.0110 ; qtot   -1.036
        13           c12bf         1   UNL       c12        13     0.11057       12.0110 ; qtot   -0.926
        14           n13bf         1   UNL       n13        14    -0.47239       14.0070 ; qtot   -1.398
        15           c14bf         1   UNL       c14        15     0.11057       12.0110 ; qtot   -1.287
        16           c15bf         1   UNL       c15        16    -0.09743       12.0110 ; qtot   -1.385
        17           c16bf         1   UNL       c16        17     0.23516       12.0110 ; qtot   -1.150
        18           c17bf         1   UNL       c17        18     0.70764       12.0110 ; qtot   -0.442
        19           o18bf         1   UNL       o18        19    -0.58293       15.9990 ; qtot   -1.025
        20           c19bf         1   UNL       c19        20    -0.15596       12.0110 ; qtot   -1.181
        21           c20bf         1   UNL       c20        21     0.16292       12.0110 ; qtot   -1.018
        22           f21bf         1   UNL       f21        22    -0.13494       18.9980 ; qtot   -1.153
        23           c22bf         1   UNL       c22        23    -0.15817       12.0110 ; qtot   -1.311
        24           c23bf         1   UNL       c23        24    -0.08197       12.0110 ; qtot   -1.393
        25           c24bf         1   UNL       c24        25    -0.13048       12.0110 ; qtot   -1.524
        26           c25bf         1   UNL       c25        26     0.07222       12.0110 ; qtot   -1.451
        27           n26bf         1   UNL       n26        27     0.30201       14.0070 ; qtot   -1.149
        28           n27bf         1   UNL       n27        28    -0.47243       14.0070 ; qtot   -1.622
        29           c28bf         1   UNL       c28        29     0.20275       12.0110 ; qtot   -1.419
        30           c29bf         1   UNL       c29        30     0.20275       12.0110 ; qtot   -1.216
        31           n30bf         1   UNL       n30        31    -0.47243       14.0070 ; qtot   -1.689
        32           h31bf         1   UNL       h31        32     0.04980        1.0080 ; qtot   -1.639
        33           h32bf         1   UNL       h32        33     0.04980        1.0080 ; qtot   -1.589
        34           h33bf         1   UNL       h33        34     0.04980        1.0080 ; qtot   -1.539
        35           h34bf         1   UNL       h34        35     0.16503        1.0080 ; qtot   -1.374
        36           h35bf         1   UNL       h35        36     0.05901        1.0080 ; qtot   -1.315
        37           h36bf         1   UNL       h36        37     0.05901        1.0080 ; qtot   -1.256
        38           h37bf         1   UNL       h37        38     0.05901        1.0080 ; qtot   -1.197
        39           h38bf         1   UNL       h38        39     0.05891        1.0080 ; qtot   -1.138
        40           h39bf         1   UNL       h39        40     0.05891        1.0080 ; qtot   -1.079
        41           h40bf         1   UNL       h40        41     0.07237        1.0080 ; qtot   -1.007
        42           h41bf         1   UNL       h41        42     0.05981        1.0080 ; qtot   -0.947
        43           h42bf         1   UNL       h42        43     0.05981        1.0080 ; qtot   -0.887
        44           h43bf         1   UNL       h43        44     0.05981        1.0080 ; qtot   -0.828
        45           h44bf         1   UNL       h44        45     0.05981        1.0080 ; qtot   -0.768
        46           h45bf         1   UNL       h45        46     0.07237        1.0080 ; qtot   -0.695
        47           h46bf         1   UNL       h46        47     0.05891        1.0080 ; qtot   -0.637
        48           h47bf         1   UNL       h47        48     0.05891        1.0080 ; qtot   -0.578
        49           h48bf         1   UNL       h48        49     0.15846        1.0080 ; qtot   -0.419
        50           h49bf         1   UNL       h49        50     0.14574        1.0080 ; qtot   -0.273
        51           h50bf         1   UNL       h50        51     0.16350        1.0080 ; qtot   -0.110
        52           h51bf         1   UNL       h51        52     0.05496        1.0080 ; qtot   -0.055
        53           h52bf         1   UNL       h52        53     0.05498        1.0080 ; qtot    0.000

[ bonds ]
;       ai        aj funct               r               k
         1         2     1        0.142688   259584.206055    ;  uncertainty r = 0.000063, k = 3.301165
         1        32     1        0.109367   308921.952441    ;  uncertainty r = 0.000017, k = 1.045593
         1        33     1        0.109367   308921.952441    ;  uncertainty r = 0.000017, k = 1.045593
         1        34     1        0.109367   308921.952441    ;  uncertainty r = 0.000017, k = 1.045593
         2         3     1        0.134749   308231.633301    ;  uncertainty r = 0.000147, k = 7.120569
         3         4     1        0.141263   435351.482129    ;  uncertainty r = 0.000074, k = 6.799718
         3         9     1        0.134037   417769.616455    ;  uncertainty r = 0.000220, k = 16.167804
         4         5     1        0.140176   485504.321973    ;  uncertainty r = 0.000133, k = 10.718563
         4        35     1        0.108765   347737.873486    ;  uncertainty r = 0.000039, k = 3.714528
         5         6     1        0.150579   257447.822559    ;  uncertainty r = 0.000051, k = 8.128603
         5         7     1        0.134920   462459.583398    ;  uncertainty r = 0.000091, k = 14.283968
         6        36     1        0.109441   310673.287402    ;  uncertainty r = 0.000014, k = 1.675706
         6        37     1        0.109441   310673.287402    ;  uncertainty r = 0.000014, k = 1.675706
         6        38     1        0.109441   310673.287402    ;  uncertainty r = 0.000014, k = 1.675706
         7         8     1        0.135656   492833.421289    ;  uncertainty r = 0.000112, k = 14.245358
         8         9     1        0.136586   494103.790332    ;  uncertainty r = 0.000162, k = 7.940334
         8        10     1        0.136795   314834.559375    ;  uncertainty r = 0.000082, k = 21.226553
        10        11     1        0.146389   223637.813379    ;  uncertainty r = 0.000060, k = 14.203644
        10        17     1        0.146389   223637.787842    ;  uncertainty r = 0.000060, k = 14.203624
        11        12     1        0.153378   218045.467334    ;  uncertainty r = 0.000067, k = 7.088220
        11        39     1        0.109551   306518.450781    ;  uncertainty r = 0.000069, k = 2.534282
        11        40     1        0.109551   306518.450781    ;  uncertainty r = 0.000069, k = 2.534282
        12        13     1        0.153480   216617.049121    ;  uncertainty r = 0.000023, k = 7.412723
        12        16     1        0.154451   200722.496875    ;  uncertainty r = 0.000080, k = 20.796785
        12        41     1        0.109350   305021.261133    ;  uncertainty r = 0.000029, k = 3.829702
        13        14     1        0.146976   241154.380664    ;  uncertainty r = 0.000047, k = 15.575172
        13        42     1        0.109439   307434.875488    ;  uncertainty r = 0.000026, k = 1.171544
        13        43     1        0.109439   307434.875488    ;  uncertainty r = 0.000026, k = 1.171544
        14        15     1        0.146976   241154.380664    ;  uncertainty r = 0.000047, k = 15.575144
        14        18     1        0.135088   335723.021045    ;  uncertainty r = 0.000166, k = 15.024462
        15        16     1        0.153480   216617.049121    ;  uncertainty r = 0.000023, k = 7.412681
        15        44     1        0.109439   307434.875488    ;  uncertainty r = 0.000026, k = 1.171521
        15        45     1        0.109439   307434.875488    ;  uncertainty r = 0.000026, k = 1.171521
        16        17     1        0.153378   218045.441797    ;  uncertainty r = 0.000067, k = 7.088228
        16        46     1        0.109350   305021.261133    ;  uncertainty r = 0.000029, k = 3.829660
        17        47     1        0.109551   306518.450781    ;  uncertainty r = 0.000069, k = 2.534287
        17        48     1        0.109551   306518.450781    ;  uncertainty r = 0.000069, k = 2.534287
        18        19     1        0.123492   739384.865723    ;  uncertainty r = 0.000039, k = 10.151716
        18        20     1        0.151093   272101.603271    ;  uncertainty r = 0.000079, k = 31.154101
        20        21     1        0.139399   331888.649609    ;  uncertainty r = 0.000087, k = 16.801357
        20        26     1        0.139529   322378.221484    ;  uncertainty r = 0.000112, k = 6.618765
        21        22     1        0.135284   339697.693359    ;  uncertainty r = 0.000139, k = 6.883764
        21        23     1        0.138876   355374.082080    ;  uncertainty r = 0.000029, k = 4.848304
        23        24     1        0.139230   385818.044873    ;  uncertainty r = 0.000031, k = 3.156029
        23        49     1        0.108754   335743.833789    ;  uncertainty r = 0.000014, k = 1.461762
        24        25     1        0.139117   371572.781299    ;  uncertainty r = 0.000042, k = 2.923689
        24        50     1        0.108705   332118.687891    ;  uncertainty r = 0.000011, k = 1.593644
        25        26     1        0.139176   333973.831201    ;  uncertainty r = 0.000089, k = 2.958672
        25        51     1        0.108623   333131.336426    ;  uncertainty r = 0.000019, k = 1.837628
        26        27     1        0.140554   317671.476855    ;  uncertainty r = 0.000102, k = 8.472881
        27        28     1        0.134456   229486.015723    ;  uncertainty r = 0.000080, k = 10.859863
        27        31     1        0.134456   229486.015723    ;  uncertainty r = 0.000080, k = 10.859863
        28        29     1        0.132965   463550.937305    ;  uncertainty r = 0.000052, k = 7.730519
        29        30     1        0.141781   249584.001709    ;  uncertainty r = 0.000103, k = 15.332670
        29        52     1        0.108418   339910.136572    ;  uncertainty r = 0.000037, k = 1.124302
        30        31     1        0.132965   463550.937305    ;  uncertainty r = 0.000052, k = 7.730519
        30        53     1        0.108418   339910.136572    ;  uncertainty r = 0.000037, k = 1.124299

[ angles ]
;       ai        aj        ak funct           theta             cth
         1         2         3     1      109.156288      508.374195    ;  uncertainty theta = 0.003078, k = 0.048142
         2         1        32     1      108.168922      436.108964    ;  uncertainty theta = 0.000879, k = 0.043457
         2         1        33     1      108.168922      436.108964    ;  uncertainty theta = 0.000879, k = 0.043457
         2         1        34     1      108.168922      436.108964    ;  uncertainty theta = 0.000879, k = 0.043457
         2         3         4     1      121.761742      479.014979    ;  uncertainty theta = 0.008209, k = 0.223303
         2         3         9     1      117.547752      628.927291    ;  uncertainty theta = 0.007725, k = 0.312881
         3         4         5     1      115.466896      464.948021    ;  uncertainty theta = 0.007315, k = 0.136337
         3         4        35     1      123.962181      279.507301    ;  uncertainty theta = 0.001683, k = 0.034058
         3         9         8     1      120.028671      399.332047    ;  uncertainty theta = 0.008329, k = 0.334141
         4         3         9     1      123.479126      552.266293    ;  uncertainty theta = 0.002055, k = 0.114250
         4         5         6     1      122.220078      412.349876    ;  uncertainty theta = 0.003231, k = 0.209712
         4         5         7     1      120.854515      659.419366    ;  uncertainty theta = 0.005432, k = 0.131772
         5         4        35     1      122.979965      268.845941    ;  uncertainty theta = 0.001754, k = 0.090319
         5         6        36     1      108.859886      386.070371    ;  uncertainty theta = 0.001554, k = 0.050366
         5         6        37     1      108.859886      386.070371    ;  uncertainty theta = 0.001554, k = 0.050366
         5         6        38     1      108.859886      386.070371    ;  uncertainty theta = 0.001554, k = 0.050366
         5         7         8     1      115.655785      410.688463    ;  uncertainty theta = 0.007897, k = 0.276661
         6         5         7     1      118.789429      508.919540    ;  uncertainty theta = 0.001792, k = 0.176251
         7         8         9     1      129.767670      737.394120    ;  uncertainty theta = 0.004813, k = 0.172917
         7         8        10     1      120.097878      556.246571    ;  uncertainty theta = 0.008142, k = 0.252786
         8        10        11     1      113.732628      430.338662    ;  uncertainty theta = 0.004337, k = 0.245574
         8        10        17     1      113.732628      430.338758    ;  uncertainty theta = 0.004337, k = 0.245575
         9         8        10     1      119.875610      570.907490    ;  uncertainty theta = 0.009526, k = 0.169995
        10        11        12     1      105.541245      834.709596    ;  uncertainty theta = 0.001837, k = 0.094106
        10        11        39     1      108.499168      455.575711    ;  uncertainty theta = 0.001081, k = 0.068898
        10        11        40     1      108.499168      455.575711    ;  uncertainty theta = 0.001081, k = 0.068898
        10        17        16     1      105.541245      834.709596    ;  uncertainty theta = 0.001837, k = 0.094106
        10        17        47     1      108.499168      455.575711    ;  uncertainty theta = 0.001081, k = 0.068897
        10        17        48     1      108.499168      455.575711    ;  uncertainty theta = 0.001081, k = 0.068897
        11        10        17     1      112.777359      484.843313    ;  uncertainty theta = 0.009830, k = 0.340984
        11        12        13     1      113.001526      495.885112    ;  uncertainty theta = 0.002967, k = 0.272650
        11        12        16     1      106.407143      696.228300    ;  uncertainty theta = 0.000820, k = 0.121960
        11        12        41     1      108.909218      387.529593    ;  uncertainty theta = 0.002428, k = 0.196423
        12        11        39     1      109.942749      401.681046    ;  uncertainty theta = 0.001744, k = 0.042629
        12        11        40     1      109.942749      401.681046    ;  uncertainty theta = 0.001744, k = 0.042629
        12        13        14     1      106.005104      800.142884    ;  uncertainty theta = 0.002837, k = 0.185313
        12        13        42     1      109.812805      398.157914    ;  uncertainty theta = 0.002056, k = 0.096133
        12        13        43     1      109.812805      398.157914    ;  uncertainty theta = 0.002056, k = 0.096133
        12        16        15     1      106.536072      683.535718    ;  uncertainty theta = 0.002057, k = 0.120116
        12        16        17     1      106.407143      696.228492    ;  uncertainty theta = 0.000820, k = 0.121960
        12        16        46     1      109.787766      408.249925    ;  uncertainty theta = 0.001833, k = 0.098421
        13        12        16     1      106.536072      683.535654    ;  uncertainty theta = 0.002057, k = 0.120117
        13        12        41     1      108.976547      381.109245    ;  uncertainty theta = 0.002391, k = 0.150517
        13        14        15     1      114.311745      540.101883    ;  uncertainty theta = 0.003229, k = 0.142692
        13        14        18     1      117.974327      368.182647    ;  uncertainty theta = 0.003980, k = 0.157584
        14        13        42     1      109.203384      457.892789    ;  uncertainty theta = 0.001598, k = 0.109127
        14        13        43     1      109.203384      457.892789    ;  uncertainty theta = 0.001598, k = 0.109127
        14        15        16     1      106.005104      800.142884    ;  uncertainty theta = 0.002837, k = 0.185312
        14        15        44     1      109.203384      457.892789    ;  uncertainty theta = 0.001598, k = 0.109127
        14        15        45     1      109.203384      457.892789    ;  uncertainty theta = 0.001598, k = 0.109127
        14        18        19     1      124.922256      740.345444    ;  uncertainty theta = 0.002458, k = 0.115631
        14        18        20     1      112.159889      368.733068    ;  uncertainty theta = 0.002788, k = 0.265066
        15        14        18     1      117.974327      368.182647    ;  uncertainty theta = 0.003980, k = 0.157584
        15        16        17     1      113.001526      495.885112    ;  uncertainty theta = 0.002967, k = 0.272650
        15        16        46     1      108.976547      381.109245    ;  uncertainty theta = 0.002391, k = 0.150517
        16        12        41     1      109.787766      408.249925    ;  uncertainty theta = 0.001833, k = 0.098421
        16        15        44     1      109.812805      398.157914    ;  uncertainty theta = 0.002056, k = 0.096133
        16        15        45     1      109.812805      398.157914    ;  uncertainty theta = 0.002056, k = 0.096133
        16        17        47     1      109.942749      401.681014    ;  uncertainty theta = 0.001744, k = 0.042629
        16        17        48     1      109.942749      401.681014    ;  uncertainty theta = 0.001744, k = 0.042629
        17        16        46     1      108.909218      387.529561    ;  uncertainty theta = 0.002428, k = 0.196423
        18        20        21     1      122.644753      394.633059    ;  uncertainty theta = 0.009716, k = 0.281698
        18        20        26     1      121.727440      360.483272    ;  uncertainty theta = 0.007459, k = 0.258991
        19        18        20     1      123.973495      474.716636    ;  uncertainty theta = 0.004986, k = 0.295298
        20        21        22     1      116.293533      481.718082    ;  uncertainty theta = 0.003628, k = 0.151958
        20        21        23     1      125.257851      358.228537    ;  uncertainty theta = 0.006392, k = 0.161234
        20        26        25     1      126.248352      383.964293    ;  uncertainty theta = 0.008470, k = 0.143041
        20        26        27     1      115.625549      424.401189    ;  uncertainty theta = 0.005276, k = 0.425221
        21        20        26     1      120.519875      451.018997    ;  uncertainty theta = 0.010533, k = 0.145475
        21        23        24     1      116.906998      480.293111    ;  uncertainty theta = 0.004692, k = 0.077746
        21        23        49     1      120.257713      280.421849    ;  uncertainty theta = 0.001644, k = 0.051464
        22        21        23     1      119.307655      515.150978    ;  uncertainty theta = 0.004276, k = 0.124646
        23        24        25     1      119.580154      501.480038    ;  uncertainty theta = 0.001152, k = 0.050795
        23        24        50     1      120.085129      283.076623    ;  uncertainty theta = 0.000551, k = 0.029815
        24        23        49     1      122.091469      282.690757    ;  uncertainty theta = 0.001292, k = 0.025850
        24        25        26     1      119.295853      511.815512    ;  uncertainty theta = 0.002200, k = 0.078353
        24        25        51     1      121.511391      292.121324    ;  uncertainty theta = 0.001401, k = 0.054323
        25        24        50     1      119.901108      278.613917    ;  uncertainty theta = 0.000633, k = 0.016225
        25        26        27     1      118.568016      453.799094    ;  uncertainty theta = 0.002843, k = 0.118727
        26        25        51     1      118.140259      263.598991    ;  uncertainty theta = 0.002697, k = 0.141621
        26        27        28     1      116.169716      430.317850    ;  uncertainty theta = 0.006654, k = 0.182017
        26        27        31     1      116.169716      430.317850    ;  uncertainty theta = 0.006654, k = 0.182017
        27        28        29     1      105.336914      920.571231    ;  uncertainty theta = 0.004509, k = 0.170853
        27        31        30     1      105.336914      920.571231    ;  uncertainty theta = 0.004509, k = 0.170853
        28        27        31     1      113.935104     1160.946488    ;  uncertainty theta = 0.004391, k = 0.191360
        28        29        30     1      108.874611      885.375859    ;  uncertainty theta = 0.003815, k = 0.097431
        28        29        52     1      119.790878      274.219077    ;  uncertainty theta = 0.003825, k = 0.115835
        29        30        31     1      108.874611      885.375859    ;  uncertainty theta = 0.003815, k = 0.097431
        29        30        53     1      127.065453      242.460680    ;  uncertainty theta = 0.004115, k = 0.077998
        30        29        52     1      127.065453      242.460680    ;  uncertainty theta = 0.004115, k = 0.077998
        31        30        53     1      119.790878      274.219077    ;  uncertainty theta = 0.003825, k = 0.115835
        32         1        33     1      109.236244      330.268307    ;  uncertainty theta = 0.002176, k = 0.017375
        32         1        34     1      109.236244      330.268307    ;  uncertainty theta = 0.002176, k = 0.017375
        33         1        34     1      109.236244      330.268307    ;  uncertainty theta = 0.002176, k = 0.017375
        36         6        37     1      107.160439      312.277414    ;  uncertainty theta = 0.001265, k = 0.034556
        36         6        38     1      107.160439      312.277414    ;  uncertainty theta = 0.001265, k = 0.034556
        37         6        38     1      107.160439      312.277414    ;  uncertainty theta = 0.001265, k = 0.034556
        39        11        40     1      105.123001      312.324913    ;  uncertainty theta = 0.002382, k = 0.114503
        42        13        43     1      105.371437      309.387890    ;  uncertainty theta = 0.003860, k = 0.079571
        44        15        45     1      105.371437      309.387890    ;  uncertainty theta = 0.003860, k = 0.079571
        47        17        48     1      105.123001      312.324913    ;  uncertainty theta = 0.002382, k = 0.114503

[ dihedrals ] ; propers for gromacs 4.5 or higher, use funct 9
;       ai        aj        ak        al funct           phase               k        pn
         1         2         3         4     9        0.000000        0.277165         1    ;  uncertainty k = 0.511042
         1         2         3         4     9      180.000000        9.287076         2    ;  uncertainty k = 0.218594
         1         2         3         4     9        0.000000        0.350835         3    ;  uncertainty k = 0.301373
         1         2         3         4     9      180.000000        0.183742         4    ;  uncertainty k = 0.181446
         1         2         3         9     9        0.000000        2.791083         1    ;  uncertainty k = 0.537820
         1         2         3         9     9      180.000000       11.607596         2    ;  uncertainty k = 0.263777
         1         2         3         9     9        0.000000        0.288321         3    ;  uncertainty k = 0.367609
         1         2         3         9     9      180.000000        0.322176         4    ;  uncertainty k = 0.112084
         2         3         4         5     9        0.000000       -0.095701         1    ;  uncertainty k = 0.550085
         2         3         4         5     9      180.000000        7.339675         2    ;  uncertainty k = 0.361793
         2         3         4         5     9        0.000000        0.651822         3    ;  uncertainty k = 0.377621
         2         3         4         5     9      180.000000        1.209111         4    ;  uncertainty k = 0.386199
         2         3         4        35     9        0.000000        0.137238         1    ;  uncertainty k = 0.320078
         2         3         4        35     9      180.000000        6.780056         2    ;  uncertainty k = 0.481576
         2         3         4        35     9        0.000000        0.659341         3    ;  uncertainty k = 0.252432
         2         3         4        35     9      180.000000        0.744492         4    ;  uncertainty k = 0.249219
         2         3         9         8     9        0.000000        0.297676         1    ;  uncertainty k = 1.332425
         2         3         9         8     9      180.000000       14.427961         2    ;  uncertainty k = 0.390677
         2         3         9         8     9        0.000000        2.067551         3    ;  uncertainty k = 0.543472
         2         3         9         8     9      180.000000        1.398055         4    ;  uncertainty k = 0.331390
         3         2         1        32     9        0.000000        1.486781         1    ;  uncertainty k = 0.434753
         3         2         1        32     9      180.000000       -0.293885         2    ;  uncertainty k = 0.188424
         3         2         1        32     9        0.000000        0.280490         3    ;  uncertainty k = 0.081773
         3         2         1        32     9      180.000000        0.431609         4    ;  uncertainty k = 0.073162
         3         2         1        33     9        0.000000        1.486781         1    ;  uncertainty k = 0.434753
         3         2         1        33     9      180.000000       -0.293885         2    ;  uncertainty k = 0.188424
         3         2         1        33     9        0.000000        0.280490         3    ;  uncertainty k = 0.081773
         3         2         1        33     9      180.000000        0.431609         4    ;  uncertainty k = 0.073162
         3         2         1        34     9        0.000000        1.486781         1    ;  uncertainty k = 0.434753
         3         2         1        34     9      180.000000       -0.293885         2    ;  uncertainty k = 0.188424
         3         2         1        34     9        0.000000        0.280490         3    ;  uncertainty k = 0.081773
         3         2         1        34     9      180.000000        0.431609         4    ;  uncertainty k = 0.073162
         3         4         5         6     9        0.000000       -0.092553         1    ;  uncertainty k = 0.553882
         3         4         5         6     9      180.000000        8.952678         2    ;  uncertainty k = 0.290889
         3         4         5         6     9        0.000000        0.917324         3    ;  uncertainty k = 0.319701
         3         4         5         6     9      180.000000        1.282020         4    ;  uncertainty k = 0.285491
         3         4         5         7     9        0.000000       -0.257652         1    ;  uncertainty k = 0.441767
         3         4         5         7     9      180.000000       13.330723         2    ;  uncertainty k = 0.430366
         3         4         5         7     9        0.000000       -1.104416         3    ;  uncertainty k = 0.724430
         3         4         5         7     9      180.000000        0.922160         4    ;  uncertainty k = 0.171307
         3         9         8         7     9        0.000000       -0.404595         1    ;  uncertainty k = 0.315556
         3         9         8         7     9      180.000000        9.108744         2    ;  uncertainty k = 0.659158
         3         9         8         7     9        0.000000        0.911716         3    ;  uncertainty k = 0.338546
         3         9         8         7     9      180.000000        0.766061         4    ;  uncertainty k = 0.088895
         3         9         8        10     9        0.000000        0.457612         1    ;  uncertainty k = 0.438154
         3         9         8        10     9      180.000000       11.112124         2    ;  uncertainty k = 0.473070
         3         9         8        10     9        0.000000        1.616184         3    ;  uncertainty k = 0.241776
         3         9         8        10     9      180.000000        0.935141         4    ;  uncertainty k = 0.260096
         4         3         9         8     9        0.000000       -0.311455         1    ;  uncertainty k = 1.186003
         4         3         9         8     9      180.000000       12.049297         2    ;  uncertainty k = 0.361795
         4         3         9         8     9        0.000000        0.303300         3    ;  uncertainty k = 0.392305
         4         3         9         8     9      180.000000        0.968167         4    ;  uncertainty k = 0.365562
         4         5         6        36     9        0.000000       -0.187738         1    ;  uncertainty k = 0.281703
         4         5         6        36     9      180.000000        2.448150         2    ;  uncertainty k = 0.169319
         4         5         6        36     9        0.000000        0.233013         3    ;  uncertainty k = 0.027504
         4         5         6        36     9      180.000000        0.153930         4    ;  uncertainty k = 0.019604
         4         5         6        37     9        0.000000       -0.187738         1    ;  uncertainty k = 0.281703
         4         5         6        37     9      180.000000        2.448150         2    ;  uncertainty k = 0.169319
         4         5         6        37     9        0.000000        0.233013         3    ;  uncertainty k = 0.027504
         4         5         6        37     9      180.000000        0.153930         4    ;  uncertainty k = 0.019604
         4         5         6        38     9        0.000000       -0.187738         1    ;  uncertainty k = 0.281703
         4         5         6        38     9      180.000000        2.448150         2    ;  uncertainty k = 0.169319
         4         5         6        38     9        0.000000        0.233013         3    ;  uncertainty k = 0.027504
         4         5         6        38     9      180.000000        0.153930         4    ;  uncertainty k = 0.019604
         4         5         7         8     9        0.000000       -0.299133         1    ;  uncertainty k = 0.409518
         4         5         7         8     9      180.000000       14.638519         2    ;  uncertainty k = 0.196321
         4         5         7         8     9        0.000000        0.114109         3    ;  uncertainty k = 0.461548
         4         5         7         8     9      180.000000        1.155040         4    ;  uncertainty k = 0.374488
         5         4         3         9     9        0.000000       -0.168564         1    ;  uncertainty k = 0.332950
         5         4         3         9     9      180.000000        8.885269         2    ;  uncertainty k = 0.671492
         5         4         3         9     9        0.000000       -1.082242         3    ;  uncertainty k = 0.547687
         5         4         3         9     9      180.000000        1.142055         4    ;  uncertainty k = 0.287160
         5         7         8         9     9        0.000000       -0.257897         1    ;  uncertainty k = 0.918963
         5         7         8         9     9      180.000000        9.540451         2    ;  uncertainty k = 0.777477
         5         7         8         9     9        0.000000        0.740606         3    ;  uncertainty k = 0.558304
         5         7         8         9     9      180.000000        0.833742         4    ;  uncertainty k = 0.125058
         5         7         8        10     9        0.000000        0.600229         1    ;  uncertainty k = 1.063010
         5         7         8        10     9      180.000000       10.770995         2    ;  uncertainty k = 0.356083
         5         7         8        10     9        0.000000        1.699576         3    ;  uncertainty k = 0.314465
         5         7         8        10     9      180.000000        1.012855         4    ;  uncertainty k = 0.159195
         6         5         4        35     9        0.000000       -0.264417         1    ;  uncertainty k = 0.389617
         6         5         4        35     9      180.000000        6.906746         2    ;  uncertainty k = 0.318250
         6         5         4        35     9        0.000000        0.636737         3    ;  uncertainty k = 0.271259
         6         5         4        35     9      180.000000        0.759030         4    ;  uncertainty k = 0.244098
         6         5         7         8     9        0.000000        0.052667         1    ;  uncertainty k = 1.195916
         6         5         7         8     9      180.000000       14.620216         2    ;  uncertainty k = 0.522058
         6         5         7         8     9        0.000000        2.422044         3    ;  uncertainty k = 0.364202
         6         5         7         8     9      180.000000        1.633394         4    ;  uncertainty k = 0.480691
         7         5         4        35     9        0.000000        0.350389         1    ;  uncertainty k = 0.492523
         7         5         4        35     9      180.000000        8.681885         2    ;  uncertainty k = 0.361894
         7         5         4        35     9        0.000000        1.256367         3    ;  uncertainty k = 0.335469
         7         5         4        35     9      180.000000        1.669953         4    ;  uncertainty k = 0.075187
         7         5         6        36     9        0.000000        0.509147         1    ;  uncertainty k = 0.276510
         7         5         6        36     9      180.000000        3.697214         2    ;  uncertainty k = 0.073201
         7         5         6        36     9        0.000000        0.517307         3    ;  uncertainty k = 0.062545
         7         5         6        36     9      180.000000        0.284508         4    ;  uncertainty k = 0.043772
         7         5         6        37     9        0.000000        0.509147         1    ;  uncertainty k = 0.276510
         7         5         6        37     9      180.000000        3.697214         2    ;  uncertainty k = 0.073201
         7         5         6        37     9        0.000000        0.517307         3    ;  uncertainty k = 0.062545
         7         5         6        37     9      180.000000        0.284508         4    ;  uncertainty k = 0.043772
         7         5         6        38     9        0.000000        0.509147         1    ;  uncertainty k = 0.276510
         7         5         6        38     9      180.000000        3.697214         2    ;  uncertainty k = 0.073201
         7         5         6        38     9        0.000000        0.517307         3    ;  uncertainty k = 0.062545
         7         5         6        38     9      180.000000        0.284508         4    ;  uncertainty k = 0.043772
         7         8        10        11     9        0.000000        5.182116         1    ;  uncertainty k = 0.547876
         7         8        10        11     9      180.000000       12.037581         2    ;  uncertainty k = 0.159118
         7         8        10        11     9        0.000000        0.182953         3    ;  uncertainty k = 0.182885
         7         8        10        11     9      180.000000       -0.355791         4    ;  uncertainty k = 0.083796
         7         8        10        17     9        0.000000        5.182115         1    ;  uncertainty k = 0.547875
         7         8        10        17     9      180.000000       12.037582         2    ;  uncertainty k = 0.159119
         7         8        10        17     9        0.000000        0.182954         3    ;  uncertainty k = 0.182885
         7         8        10        17     9      180.000000       -0.355791         4    ;  uncertainty k = 0.083796
         8        10        11        12     9        0.000000       -5.370173         1    ;  uncertainty k = 1.864291
         8        10        11        12     9      180.000000        0.655079         2    ;  uncertainty k = 0.696060
         8        10        11        12     9        0.000000        0.781270         3    ;  uncertainty k = 0.300657
         8        10        11        12     9      180.000000        0.323803         4    ;  uncertainty k = 0.113259
         8        10        11        39     9        0.000000       -0.240905         1    ;  uncertainty k = 0.723362
         8        10        11        39     9      180.000000        0.986953         2    ;  uncertainty k = 0.481188
         8        10        11        39     9        0.000000        0.574655         3    ;  uncertainty k = 0.124755
         8        10        11        39     9      180.000000        0.381490         4    ;  uncertainty k = 0.102564
         8        10        11        40     9        0.000000       -0.240905         1    ;  uncertainty k = 0.723362
         8        10        11        40     9      180.000000        0.986953         2    ;  uncertainty k = 0.481188
         8        10        11        40     9        0.000000        0.574655         3    ;  uncertainty k = 0.124755
         8        10        11        40     9      180.000000        0.381490         4    ;  uncertainty k = 0.102564
         8        10        17        16     9        0.000000       -5.370174         1    ;  uncertainty k = 1.864292
         8        10        17        16     9      180.000000        0.655079         2    ;  uncertainty k = 0.696061
         8        10        17        16     9        0.000000        0.781269         3    ;  uncertainty k = 0.300657
         8        10        17        16     9      180.000000        0.323803         4    ;  uncertainty k = 0.113260
         8        10        17        47     9        0.000000       -0.240905         1    ;  uncertainty k = 0.723363
         8        10        17        47     9      180.000000        0.986953         2    ;  uncertainty k = 0.481188
         8        10        17        47     9        0.000000        0.574655         3    ;  uncertainty k = 0.124754
         8        10        17        47     9      180.000000        0.381490         4    ;  uncertainty k = 0.102564
         8        10        17        48     9        0.000000       -0.240905         1    ;  uncertainty k = 0.723363
         8        10        17        48     9      180.000000        0.986953         2    ;  uncertainty k = 0.481188
         8        10        17        48     9        0.000000        0.574655         3    ;  uncertainty k = 0.124754
         8        10        17        48     9      180.000000        0.381490         4    ;  uncertainty k = 0.102564
         9         3         4        35     9        0.000000        0.142439         1    ;  uncertainty k = 0.502087
         9         3         4        35     9      180.000000        6.820496         2    ;  uncertainty k = 0.486681
         9         3         4        35     9        0.000000        0.974036         3    ;  uncertainty k = 0.437124
         9         3         4        35     9      180.000000        1.347555         4    ;  uncertainty k = 0.051250
         9         8        10        11     9        0.000000        6.285835         1    ;  uncertainty k = 0.576241
         9         8        10        11     9      180.000000       11.972831         2    ;  uncertainty k = 0.208419
         9         8        10        11     9        0.000000        0.283900         3    ;  uncertainty k = 0.185866
         9         8        10        11     9      180.000000       -0.360061         4    ;  uncertainty k = 0.080872
         9         8        10        17     9        0.000000        6.285835         1    ;  uncertainty k = 0.576242
         9         8        10        17     9      180.000000       11.972829         2    ;  uncertainty k = 0.208419
         9         8        10        17     9        0.000000        0.283901         3    ;  uncertainty k = 0.185866
         9         8        10        17     9      180.000000       -0.360061         4    ;  uncertainty k = 0.080872
        10        11        12        13     9        0.000000       -1.981827         1    ;  uncertainty k = 1.100824
        10        11        12        13     9      180.000000        0.974874         2    ;  uncertainty k = 0.869783
        10        11        12        13     9        0.000000        1.650528         3    ;  uncertainty k = 0.386814
        10        11        12        13     9      180.000000       -0.170576         4    ;  uncertainty k = 0.234248
        10        11        12        16     9        0.000000       -0.233298         1    ;  uncertainty k = 1.676281
        10        11        12        16     9      180.000000        6.154010         2    ;  uncertainty k = 1.118509
        10        11        12        16     9        0.000000        0.670988         3    ;  uncertainty k = 0.340936
        10        11        12        16     9      180.000000       -1.481872         4    ;  uncertainty k = 0.503620
        10        11        12        41     9        0.000000        0.586045         1    ;  uncertainty k = 0.852770
        10        11        12        41     9      180.000000        1.306757         2    ;  uncertainty k = 0.491981
        10        11        12        41     9        0.000000        1.172581         3    ;  uncertainty k = 0.229224
        10        11        12        41     9      180.000000       -0.073850         4    ;  uncertainty k = 0.181925
        10        17        16        12     9        0.000000       -0.233298         1    ;  uncertainty k = 1.676281
        10        17        16        12     9      180.000000        6.154011         2    ;  uncertainty k = 1.118510
        10        17        16        12     9        0.000000        0.670987         3    ;  uncertainty k = 0.340935
        10        17        16        12     9      180.000000       -1.481872         4    ;  uncertainty k = 0.503620
        10        17        16        15     9        0.000000       -1.981829         1    ;  uncertainty k = 1.100822
        10        17        16        15     9      180.000000        0.974873         2    ;  uncertainty k = 0.869781
        10        17        16        15     9        0.000000        1.650527         3    ;  uncertainty k = 0.386814
        10        17        16        15     9      180.000000       -0.170576         4    ;  uncertainty k = 0.234248
        10        17        16        46     9        0.000000        0.586046         1    ;  uncertainty k = 0.852770
        10        17        16        46     9      180.000000        1.306755         2    ;  uncertainty k = 0.491982
        10        17        16        46     9        0.000000        1.172581         3    ;  uncertainty k = 0.229224
        10        17        16        46     9      180.000000       -0.073849         4    ;  uncertainty k = 0.181925
        11        10        17        16     9        0.000000        0.440830         1    ;  uncertainty k = 1.044505
        11        10        17        16     9      180.000000        1.404592         2    ;  uncertainty k = 1.153028
        11        10        17        16     9        0.000000        0.875965         3    ;  uncertainty k = 0.350221
        11        10        17        16     9      180.000000        0.024695         4    ;  uncertainty k = 0.167541
        11        10        17        47     9        0.000000       -2.076062         1    ;  uncertainty k = 0.722877
        11        10        17        47     9      180.000000        1.290566         2    ;  uncertainty k = 0.405736
        11        10        17        47     9        0.000000        1.141879         3    ;  uncertainty k = 0.081080
        11        10        17        47     9      180.000000        0.252847         4    ;  uncertainty k = 0.123131
        11        10        17        48     9        0.000000       -2.076062         1    ;  uncertainty k = 0.722877
        11        10        17        48     9      180.000000        1.290566         2    ;  uncertainty k = 0.405736
        11        10        17        48     9        0.000000        1.141879         3    ;  uncertainty k = 0.081080
        11        10        17        48     9      180.000000        0.252847         4    ;  uncertainty k = 0.123131
        11        12        13        14     9        0.000000       -2.607420         1    ;  uncertainty k = 0.995424
        11        12        13        14     9      180.000000        0.022076         2    ;  uncertainty k = 0.727033
        11        12        13        14     9        0.000000        1.612970         3    ;  uncertainty k = 0.235291
        11        12        13        14     9      180.000000       -0.185713         4    ;  uncertainty k = 0.112586
        11        12        13        42     9        0.000000       -0.498818         1    ;  uncertainty k = 0.107247
        11        12        13        42     9      180.000000       -0.409706         2    ;  uncertainty k = 0.197166
        11        12        13        42     9        0.000000        0.564543         3    ;  uncertainty k = 0.186998
        11        12        13        42     9      180.000000       -0.072177         4    ;  uncertainty k = 0.062323
        11        12        13        43     9        0.000000       -0.498818         1    ;  uncertainty k = 0.107247
        11        12        13        43     9      180.000000       -0.409706         2    ;  uncertainty k = 0.197166
        11        12        13        43     9        0.000000        0.564543         3    ;  uncertainty k = 0.186998
        11        12        13        43     9      180.000000       -0.072177         4    ;  uncertainty k = 0.062323
        11        12        16        15     9        0.000000       -3.847150         1    ;  uncertainty k = 0.842081
        11        12        16        15     9      180.000000        0.994502         2    ;  uncertainty k = 1.017626
        11        12        16        15     9        0.000000        1.189094         3    ;  uncertainty k = 0.581588
        11        12        16        15     9      180.000000       -0.416044         4    ;  uncertainty k = 0.334399
        11        12        16        17     9        0.000000       -3.896618         1    ;  uncertainty k = 1.087275
        11        12        16        17     9      180.000000        1.035025         2    ;  uncertainty k = 1.026286
        11        12        16        17     9        0.000000        1.207838         3    ;  uncertainty k = 0.671623
        11        12        16        17     9      180.000000       -0.436931         4    ;  uncertainty k = 0.343366
        11        12        16        46     9        0.000000       -1.223112         1    ;  uncertainty k = 0.611377
        11        12        16        46     9      180.000000        0.489634         2    ;  uncertainty k = 0.414978
        11        12        16        46     9        0.000000        0.997353         3    ;  uncertainty k = 0.241670
        11        12        16        46     9      180.000000        0.066778         4    ;  uncertainty k = 0.087125
        12        11        10        17     9        0.000000        0.440830         1    ;  uncertainty k = 1.044507
        12        11        10        17     9      180.000000        1.404593         2    ;  uncertainty k = 1.153029
        12        11        10        17     9        0.000000        0.875965         3    ;  uncertainty k = 0.350221
        12        11        10        17     9      180.000000        0.024695         4    ;  uncertainty k = 0.167541
        12        13        14        15     9        0.000000       -0.578347         1    ;  uncertainty k = 0.919747
        12        13        14        15     9      180.000000        0.242792         2    ;  uncertainty k = 0.701024
        12        13        14        15     9        0.000000        0.797027         3    ;  uncertainty k = 0.218418
        12        13        14        15     9      180.000000        0.154107         4    ;  uncertainty k = 0.246781
        12        13        14        18     9        0.000000       -0.209381         1    ;  uncertainty k = 0.966461
        12        13        14        18     9      180.000000       -0.541701         2    ;  uncertainty k = 0.373893
        12        13        14        18     9        0.000000        0.202801         3    ;  uncertainty k = 0.362931
        12        13        14        18     9      180.000000        0.702312         4    ;  uncertainty k = 0.132281
        12        16        15        14     9        0.000000       -0.736764         1    ;  uncertainty k = 0.633515
        12        16        15        14     9      180.000000        6.025412         2    ;  uncertainty k = 1.000861
        12        16        15        14     9        0.000000        0.435197         3    ;  uncertainty k = 0.297546
        12        16        15        14     9      180.000000       -1.170163         4    ;  uncertainty k = 0.204855
        12        16        15        44     9        0.000000        0.480411         1    ;  uncertainty k = 0.492791
        12        16        15        44     9      180.000000       -1.104496         2    ;  uncertainty k = 0.672329
        12        16        15        44     9        0.000000       -0.270073         3    ;  uncertainty k = 0.170671
        12        16        15        44     9      180.000000       -0.013160         4    ;  uncertainty k = 0.174221
        12        16        15        45     9        0.000000        0.480411         1    ;  uncertainty k = 0.492791
        12        16        15        45     9      180.000000       -1.104496         2    ;  uncertainty k = 0.672329
        12        16        15        45     9        0.000000       -0.270073         3    ;  uncertainty k = 0.170671
        12        16        15        45     9      180.000000       -0.013160         4    ;  uncertainty k = 0.174221
        12        16        17        47     9        0.000000        0.646621         1    ;  uncertainty k = 0.517783
        12        16        17        47     9      180.000000       -1.099688         2    ;  uncertainty k = 0.743824
        12        16        17        47     9        0.000000       -0.334779         3    ;  uncertainty k = 0.213643
        12        16        17        47     9      180.000000       -0.018734         4    ;  uncertainty k = 0.206092
        12        16        17        48     9        0.000000        0.646621         1    ;  uncertainty k = 0.517783
        12        16        17        48     9      180.000000       -1.099688         2    ;  uncertainty k = 0.743824
        12        16        17        48     9        0.000000       -0.334779         3    ;  uncertainty k = 0.213643
        12        16        17        48     9      180.000000       -0.018734         4    ;  uncertainty k = 0.206092
        13        12        11        39     9        0.000000       -0.670734         1    ;  uncertainty k = 0.233995
        13        12        11        39     9      180.000000       -0.386310         2    ;  uncertainty k = 0.258590
        13        12        11        39     9        0.000000        0.557637         3    ;  uncertainty k = 0.179621
        13        12        11        39     9      180.000000       -0.081826         4    ;  uncertainty k = 0.095492
        13        12        11        40     9        0.000000       -0.670734         1    ;  uncertainty k = 0.233995
        13        12        11        40     9      180.000000       -0.386310         2    ;  uncertainty k = 0.258590
        13        12        11        40     9        0.000000        0.557637         3    ;  uncertainty k = 0.179621
        13        12        11        40     9      180.000000       -0.081826         4    ;  uncertainty k = 0.095492
        13        12        16        15     9        0.000000       -3.717091         1    ;  uncertainty k = 0.646014
        13        12        16        15     9      180.000000        0.952705         2    ;  uncertainty k = 0.984304
        13        12        16        15     9        0.000000        1.178983         3    ;  uncertainty k = 0.499657
        13        12        16        15     9      180.000000       -0.410261         4    ;  uncertainty k = 0.338854
        13        12        16        17     9        0.000000       -3.847151         1    ;  uncertainty k = 0.842082
        13        12        16        17     9      180.000000        0.994504         2    ;  uncertainty k = 1.017625
        13        12        16        17     9        0.000000        1.189094         3    ;  uncertainty k = 0.581588
        13        12        16        17     9      180.000000       -0.416044         4    ;  uncertainty k = 0.334399
        13        12        16        46     9        0.000000       -1.291634         1    ;  uncertainty k = 0.560343
        13        12        16        46     9      180.000000        0.594321         2    ;  uncertainty k = 0.368266
        13        12        16        46     9        0.000000        1.030260         3    ;  uncertainty k = 0.246250
        13        12        16        46     9      180.000000        0.081405         4    ;  uncertainty k = 0.059901
        13        14        15        16     9        0.000000       -0.578347         1    ;  uncertainty k = 0.919747
        13        14        15        16     9      180.000000        0.242792         2    ;  uncertainty k = 0.701025
        13        14        15        16     9        0.000000        0.797027         3    ;  uncertainty k = 0.218419
        13        14        15        16     9      180.000000        0.154107         4    ;  uncertainty k = 0.246781
        13        14        15        44     9        0.000000       -1.810377         1    ;  uncertainty k = 0.576097
        13        14        15        44     9      180.000000        1.086382         2    ;  uncertainty k = 0.426528
        13        14        15        44     9        0.000000        1.250141         3    ;  uncertainty k = 0.136647
        13        14        15        44     9      180.000000        0.301768         4    ;  uncertainty k = 0.117464
        13        14        15        45     9        0.000000       -1.810377         1    ;  uncertainty k = 0.576097
        13        14        15        45     9      180.000000        1.086382         2    ;  uncertainty k = 0.426528
        13        14        15        45     9        0.000000        1.250141         3    ;  uncertainty k = 0.136647
        13        14        15        45     9      180.000000        0.301768         4    ;  uncertainty k = 0.117464
        13        14        18        19     9        0.000000        6.357003         1    ;  uncertainty k = 0.547606
        13        14        18        19     9      180.000000       16.962734         2    ;  uncertainty k = 0.212954
        13        14        18        19     9        0.000000        0.267170         3    ;  uncertainty k = 0.202910
        13        14        18        19     9      180.000000       -1.190649         4    ;  uncertainty k = 0.124612
        13        14        18        20     9        0.000000        3.407849         1    ;  uncertainty k = 1.339110
        13        14        18        20     9      180.000000        8.996075         2    ;  uncertainty k = 0.412445
        13        14        18        20     9        0.000000        1.595044         3    ;  uncertainty k = 0.230309
        13        14        18        20     9      180.000000       -0.020267         4    ;  uncertainty k = 0.371981
        14        13        12        16     9        0.000000       -0.736762         1    ;  uncertainty k = 0.633517
        14        13        12        16     9      180.000000        6.025413         2    ;  uncertainty k = 1.000861
        14        13        12        16     9        0.000000        0.435196         3    ;  uncertainty k = 0.297545
        14        13        12        16     9      180.000000       -1.170163         4    ;  uncertainty k = 0.204856
        14        13        12        41     9        0.000000        0.123161         1    ;  uncertainty k = 0.632773
        14        13        12        41     9      180.000000        0.836162         2    ;  uncertainty k = 0.434791
        14        13        12        41     9        0.000000        1.098159         3    ;  uncertainty k = 0.161086
        14        13        12        41     9      180.000000       -0.066245         4    ;  uncertainty k = 0.104331
        14        15        16        17     9        0.000000       -2.607419         1    ;  uncertainty k = 0.995424
        14        15        16        17     9      180.000000        0.022076         2    ;  uncertainty k = 0.727033
        14        15        16        17     9        0.000000        1.612970         3    ;  uncertainty k = 0.235290
        14        15        16        17     9      180.000000       -0.185713         4    ;  uncertainty k = 0.112586
        14        15        16        46     9        0.000000        0.123160         1    ;  uncertainty k = 0.632774
        14        15        16        46     9      180.000000        0.836161         2    ;  uncertainty k = 0.434791
        14        15        16        46     9        0.000000        1.098159         3    ;  uncertainty k = 0.161086
        14        15        16        46     9      180.000000       -0.066245         4    ;  uncertainty k = 0.104331
        14        18        20        21     9        0.000000        1.851367         1    ;  uncertainty k = 1.259576
        14        18        20        21     9      180.000000        5.752965         2    ;  uncertainty k = 0.175508
        14        18        20        21     9        0.000000        0.162215         3    ;  uncertainty k = 0.318225
        14        18        20        21     9      180.000000        0.484794         4    ;  uncertainty k = 0.155871
        14        18        20        26     9        0.000000        3.709916         1    ;  uncertainty k = 1.132205
        14        18        20        26     9      180.000000        5.907216         2    ;  uncertainty k = 0.295098
        14        18        20        26     9        0.000000        0.162296         3    ;  uncertainty k = 0.106376
        14        18        20        26     9      180.000000        0.490410         4    ;  uncertainty k = 0.140372
        15        14        13        42     9        0.000000       -1.810377         1    ;  uncertainty k = 0.576098
        15        14        13        42     9      180.000000        1.086382         2    ;  uncertainty k = 0.426526
        15        14        13        42     9        0.000000        1.250141         3    ;  uncertainty k = 0.136647
        15        14        13        42     9      180.000000        0.301768         4    ;  uncertainty k = 0.117464
        15        14        13        43     9        0.000000       -1.810377         1    ;  uncertainty k = 0.576098
        15        14        13        43     9      180.000000        1.086382         2    ;  uncertainty k = 0.426526
        15        14        13        43     9        0.000000        1.250141         3    ;  uncertainty k = 0.136647
        15        14        13        43     9      180.000000        0.301768         4    ;  uncertainty k = 0.117464
        15        14        18        19     9        0.000000        6.357001         1    ;  uncertainty k = 0.547606
        15        14        18        19     9      180.000000       16.962734         2    ;  uncertainty k = 0.212955
        15        14        18        19     9        0.000000        0.267170         3    ;  uncertainty k = 0.202910
        15        14        18        19     9      180.000000       -1.190649         4    ;  uncertainty k = 0.124611
        15        14        18        20     9        0.000000        3.407847         1    ;  uncertainty k = 1.339110
        15        14        18        20     9      180.000000        8.996074         2    ;  uncertainty k = 0.412445
        15        14        18        20     9        0.000000        1.595043         3    ;  uncertainty k = 0.230310
        15        14        18        20     9      180.000000       -0.020268         4    ;  uncertainty k = 0.371981
        15        16        12        41     9        0.000000       -1.291633         1    ;  uncertainty k = 0.560343
        15        16        12        41     9      180.000000        0.594321         2    ;  uncertainty k = 0.368268
        15        16        12        41     9        0.000000        1.030260         3    ;  uncertainty k = 0.246250
        15        16        12        41     9      180.000000        0.081405         4    ;  uncertainty k = 0.059900
        15        16        17        47     9        0.000000       -0.670733         1    ;  uncertainty k = 0.233996
        15        16        17        47     9      180.000000       -0.386309         2    ;  uncertainty k = 0.258591
        15        16        17        47     9        0.000000        0.557638         3    ;  uncertainty k = 0.179621
        15        16        17        47     9      180.000000       -0.081826         4    ;  uncertainty k = 0.095492
        15        16        17        48     9        0.000000       -0.670733         1    ;  uncertainty k = 0.233996
        15        16        17        48     9      180.000000       -0.386309         2    ;  uncertainty k = 0.258591
        15        16        17        48     9        0.000000        0.557638         3    ;  uncertainty k = 0.179621
        15        16        17        48     9      180.000000       -0.081826         4    ;  uncertainty k = 0.095492
        16        12        11        39     9        0.000000        0.646621         1    ;  uncertainty k = 0.517781
        16        12        11        39     9      180.000000       -1.099689         2    ;  uncertainty k = 0.743823
        16        12        11        39     9        0.000000       -0.334778         3    ;  uncertainty k = 0.213644
        16        12        11        39     9      180.000000       -0.018734         4    ;  uncertainty k = 0.206091
        16        12        11        40     9        0.000000        0.646621         1    ;  uncertainty k = 0.517781
        16        12        11        40     9      180.000000       -1.099689         2    ;  uncertainty k = 0.743823
        16        12        11        40     9        0.000000       -0.334778         3    ;  uncertainty k = 0.213644
        16        12        11        40     9      180.000000       -0.018734         4    ;  uncertainty k = 0.206091
        16        12        13        42     9        0.000000        0.480411         1    ;  uncertainty k = 0.492791
        16        12        13        42     9      180.000000       -1.104495         2    ;  uncertainty k = 0.672328
        16        12        13        42     9        0.000000       -0.270073         3    ;  uncertainty k = 0.170671
        16        12        13        42     9      180.000000       -0.013161         4    ;  uncertainty k = 0.174221
        16        12        13        43     9        0.000000        0.480411         1    ;  uncertainty k = 0.492791
        16        12        13        43     9      180.000000       -1.104495         2    ;  uncertainty k = 0.672328
        16        12        13        43     9        0.000000       -0.270073         3    ;  uncertainty k = 0.170671
        16        12        13        43     9      180.000000       -0.013161         4    ;  uncertainty k = 0.174221
        16        15        14        18     9        0.000000       -0.209380         1    ;  uncertainty k = 0.966459
        16        15        14        18     9      180.000000       -0.541701         2    ;  uncertainty k = 0.373894
        16        15        14        18     9        0.000000        0.202801         3    ;  uncertainty k = 0.362931
        16        15        14        18     9      180.000000        0.702311         4    ;  uncertainty k = 0.132281
        17        10        11        39     9        0.000000       -2.076062         1    ;  uncertainty k = 0.722877
        17        10        11        39     9      180.000000        1.290566         2    ;  uncertainty k = 0.405736
        17        10        11        39     9        0.000000        1.141879         3    ;  uncertainty k = 0.081081
        17        10        11        39     9      180.000000        0.252847         4    ;  uncertainty k = 0.123131
        17        10        11        40     9        0.000000       -2.076062         1    ;  uncertainty k = 0.722877
        17        10        11        40     9      180.000000        1.290566         2    ;  uncertainty k = 0.405736
        17        10        11        40     9        0.000000        1.141879         3    ;  uncertainty k = 0.081081
        17        10        11        40     9      180.000000        0.252847         4    ;  uncertainty k = 0.123131
        17        16        12        41     9        0.000000       -1.223110         1    ;  uncertainty k = 0.611378
        17        16        12        41     9      180.000000        0.489635         2    ;  uncertainty k = 0.414979
        17        16        12        41     9        0.000000        0.997353         3    ;  uncertainty k = 0.241669
        17        16        12        41     9      180.000000        0.066778         4    ;  uncertainty k = 0.087125
        17        16        15        44     9        0.000000       -0.498818         1    ;  uncertainty k = 0.107248
        17        16        15        44     9      180.000000       -0.409705         2    ;  uncertainty k = 0.197166
        17        16        15        44     9        0.000000        0.564544         3    ;  uncertainty k = 0.186998
        17        16        15        44     9      180.000000       -0.072177         4    ;  uncertainty k = 0.062323
        17        16        15        45     9        0.000000       -0.498818         1    ;  uncertainty k = 0.107248
        17        16        15        45     9      180.000000       -0.409705         2    ;  uncertainty k = 0.197166
        17        16        15        45     9        0.000000        0.564544         3    ;  uncertainty k = 0.186998
        17        16        15        45     9      180.000000       -0.072177         4    ;  uncertainty k = 0.062323
        18        14        13        42     9        0.000000        1.416105         1    ;  uncertainty k = 0.719804
        18        14        13        42     9      180.000000        0.065610         2    ;  uncertainty k = 0.093474
        18        14        13        42     9        0.000000        0.002232         3    ;  uncertainty k = 0.089343
        18        14        13        42     9      180.000000        0.277826         4    ;  uncertainty k = 0.071341
        18        14        13        43     9        0.000000        1.416105         1    ;  uncertainty k = 0.719804
        18        14        13        43     9      180.000000        0.065610         2    ;  uncertainty k = 0.093474
        18        14        13        43     9        0.000000        0.002232         3    ;  uncertainty k = 0.089343
        18        14        13        43     9      180.000000        0.277826         4    ;  uncertainty k = 0.071341
        18        14        15        44     9        0.000000        1.416105         1    ;  uncertainty k = 0.719804
        18        14        15        44     9      180.000000        0.065610         2    ;  uncertainty k = 0.093472
        18        14        15        44     9        0.000000        0.002232         3    ;  uncertainty k = 0.089343
        18        14        15        44     9      180.000000        0.277826         4    ;  uncertainty k = 0.071341
        18        14        15        45     9        0.000000        1.416105         1    ;  uncertainty k = 0.719804
        18        14        15        45     9      180.000000        0.065610         2    ;  uncertainty k = 0.093472
        18        14        15        45     9        0.000000        0.002232         3    ;  uncertainty k = 0.089343
        18        14        15        45     9      180.000000        0.277826         4    ;  uncertainty k = 0.071341
        18        20        21        22     9        0.000000        0.086680         1    ;  uncertainty k = 0.322670
        18        20        21        22     9      180.000000       11.407953         2    ;  uncertainty k = 0.599565
        18        20        21        22     9        0.000000        1.385161         3    ;  uncertainty k = 0.187005
        18        20        21        22     9      180.000000        1.483635         4    ;  uncertainty k = 0.318096
        18        20        21        23     9        0.000000        0.114462         1    ;  uncertainty k = 0.659063
        18        20        21        23     9      180.000000        6.312817         2    ;  uncertainty k = 0.577136
        18        20        21        23     9        0.000000        1.356865         3    ;  uncertainty k = 0.282275
        18        20        21        23     9      180.000000        1.940646         4    ;  uncertainty k = 0.196893
        18        20        26        25     9        0.000000        0.266109         1    ;  uncertainty k = 0.262230
        18        20        26        25     9      180.000000        6.791976         2    ;  uncertainty k = 0.556220
        18        20        26        25     9        0.000000        1.305735         3    ;  uncertainty k = 0.332052
        18        20        26        25     9      180.000000        1.750369         4    ;  uncertainty k = 0.249436
        18        20        26        27     9        0.000000       -0.079088         1    ;  uncertainty k = 0.890587
        18        20        26        27     9      180.000000       10.037557         2    ;  uncertainty k = 0.622174
        18        20        26        27     9        0.000000        1.315712         3    ;  uncertainty k = 0.504290
        18        20        26        27     9      180.000000        1.286094         4    ;  uncertainty k = 0.361801
        19        18        20        21     9        0.000000       -1.928785         1    ;  uncertainty k = 0.969843
        19        18        20        21     9      180.000000        5.038791         2    ;  uncertainty k = 0.443316
        19        18        20        21     9        0.000000        0.869540         3    ;  uncertainty k = 0.424298
        19        18        20        21     9      180.000000        0.459984         4    ;  uncertainty k = 0.229979
        19        18        20        26     9        0.000000       -3.997731         1    ;  uncertainty k = 0.906468
        19        18        20        26     9      180.000000        5.945518         2    ;  uncertainty k = 0.542758
        19        18        20        26     9        0.000000        0.551178         3    ;  uncertainty k = 0.549645
        19        18        20        26     9      180.000000        0.513462         4    ;  uncertainty k = 0.329406
        20        21        23        24     9        0.000000        0.011529         1    ;  uncertainty k = 0.194930
        20        21        23        24     9      180.000000        8.787238         2    ;  uncertainty k = 0.361867
        20        21        23        24     9        0.000000        0.106727         3    ;  uncertainty k = 0.344316
        20        21        23        24     9      180.000000        1.205900         4    ;  uncertainty k = 0.276948
        20        21        23        49     9        0.000000       -0.168918         1    ;  uncertainty k = 0.390695
        20        21        23        49     9      180.000000        5.695522         2    ;  uncertainty k = 0.674905
        20        21        23        49     9        0.000000        1.129293         3    ;  uncertainty k = 0.356557
        20        21        23        49     9      180.000000        1.505167         4    ;  uncertainty k = 0.216214
        20        26        25        24     9        0.000000       -0.242508         1    ;  uncertainty k = 0.315737
        20        26        25        24     9      180.000000        9.681246         2    ;  uncertainty k = 0.496020
        20        26        25        24     9        0.000000        0.240132         3    ;  uncertainty k = 0.161668
        20        26        25        24     9      180.000000        1.271249         4    ;  uncertainty k = 0.330409
        20        26        25        51     9        0.000000       -0.007148         1    ;  uncertainty k = 0.345797
        20        26        25        51     9      180.000000        6.393420         2    ;  uncertainty k = 0.363299
        20        26        25        51     9        0.000000        1.235598         3    ;  uncertainty k = 0.195907
        20        26        25        51     9      180.000000        1.608512         4    ;  uncertainty k = 0.191460
        20        26        27        28     9        0.000000       -1.535069         1    ;  uncertainty k = 0.563416
        20        26        27        28     9      180.000000        4.499715         2    ;  uncertainty k = 0.535585
        20        26        27        28     9        0.000000        0.637687         3    ;  uncertainty k = 0.351002
        20        26        27        28     9      180.000000       -0.090463         4    ;  uncertainty k = 0.183190
        20        26        27        31     9        0.000000       -1.535069         1    ;  uncertainty k = 0.563416
        20        26        27        31     9      180.000000        4.499715         2    ;  uncertainty k = 0.535585
        20        26        27        31     9        0.000000        0.637687         3    ;  uncertainty k = 0.351002
        20        26        27        31     9      180.000000       -0.090463         4    ;  uncertainty k = 0.183190
        21        20        26        25     9        0.000000       -0.242351         1    ;  uncertainty k = 0.420152
        21        20        26        25     9      180.000000        6.983637         2    ;  uncertainty k = 0.869640
        21        20        26        25     9        0.000000        0.325219         3    ;  uncertainty k = 0.349953
        21        20        26        25     9      180.000000        1.307286         4    ;  uncertainty k = 0.335099
        21        20        26        27     9        0.000000        0.337460         1    ;  uncertainty k = 0.391009
        21        20        26        27     9      180.000000       10.376661         2    ;  uncertainty k = 0.372710
        21        20        26        27     9        0.000000        1.330823         3    ;  uncertainty k = 0.417773
        21        20        26        27     9      180.000000        1.431413         4    ;  uncertainty k = 0.199546
        21        23        24        25     9        0.000000       -0.033963         1    ;  uncertainty k = 0.110226
        21        23        24        25     9      180.000000       13.984025         2    ;  uncertainty k = 0.340845
        21        23        24        25     9        0.000000       -1.042557         3    ;  uncertainty k = 0.357764
        21        23        24        25     9      180.000000        0.802609         4    ;  uncertainty k = 0.247483
        21        23        24        50     9        0.000000       -0.104379         1    ;  uncertainty k = 0.141872
        21        23        24        50     9      180.000000        7.264410         2    ;  uncertainty k = 0.340044
        21        23        24        50     9        0.000000        1.287730         3    ;  uncertainty k = 0.202339
        21        23        24        50     9      180.000000        1.653500         4    ;  uncertainty k = 0.150967
        22        21        20        26     9        0.000000        0.033254         1    ;  uncertainty k = 0.304862
        22        21        20        26     9      180.000000       11.302610         2    ;  uncertainty k = 0.302059
        22        21        20        26     9        0.000000        1.679241         3    ;  uncertainty k = 0.164696
        22        21        20        26     9      180.000000        1.555515         4    ;  uncertainty k = 0.157671
        22        21        23        24     9        0.000000       -0.080232         1    ;  uncertainty k = 0.461474
        22        21        23        24     9      180.000000       13.203682         2    ;  uncertainty k = 0.340325
        22        21        23        24     9        0.000000        1.295972         3    ;  uncertainty k = 0.165134
        22        21        23        24     9      180.000000        1.523069         4    ;  uncertainty k = 0.233966
        22        21        23        49     9        0.000000       -0.128834         1    ;  uncertainty k = 0.456012
        22        21        23        49     9      180.000000        9.556552         2    ;  uncertainty k = 0.491147
        22        21        23        49     9        0.000000        0.767278         3    ;  uncertainty k = 0.273034
        22        21        23        49     9      180.000000        1.024642         4    ;  uncertainty k = 0.200947
        23        21        20        26     9        0.000000       -0.325541         1    ;  uncertainty k = 0.355388
        23        21        20        26     9      180.000000        6.052960         2    ;  uncertainty k = 0.864094
        23        21        20        26     9        0.000000        0.684668         3    ;  uncertainty k = 0.181781
        23        21        20        26     9      180.000000        1.492448         4    ;  uncertainty k = 0.353261
        23        24        25        26     9        0.000000       -0.096416         1    ;  uncertainty k = 0.180639
        23        24        25        26     9      180.000000       13.532949         2    ;  uncertainty k = 0.268821
        23        24        25        26     9        0.000000       -0.934273         3    ;  uncertainty k = 0.410646
        23        24        25        26     9      180.000000        0.824229         4    ;  uncertainty k = 0.239882
        23        24        25        51     9        0.000000        0.090918         1    ;  uncertainty k = 0.138952
        23        24        25        51     9      180.000000        7.803070         2    ;  uncertainty k = 0.340548
        23        24        25        51     9        0.000000        1.340932         3    ;  uncertainty k = 0.288750
        23        24        25        51     9      180.000000        1.895629         4    ;  uncertainty k = 0.190611
        24        25        26        27     9        0.000000        0.460449         1    ;  uncertainty k = 0.322983
        24        25        26        27     9      180.000000       11.387678         2    ;  uncertainty k = 0.346993
        24        25        26        27     9        0.000000        0.982542         3    ;  uncertainty k = 0.164036
        24        25        26        27     9      180.000000        1.624026         4    ;  uncertainty k = 0.138288
        25        24        23        49     9        0.000000        0.058868         1    ;  uncertainty k = 0.276257
        25        24        23        49     9      180.000000        7.716329         2    ;  uncertainty k = 0.326791
        25        24        23        49     9        0.000000        1.437490         3    ;  uncertainty k = 0.272563
        25        24        23        49     9      180.000000        1.759669         4    ;  uncertainty k = 0.126329
        25        26        27        28     9        0.000000        2.394481         1    ;  uncertainty k = 0.740964
        25        26        27        28     9      180.000000        4.329586         2    ;  uncertainty k = 0.263950
        25        26        27        28     9        0.000000        0.391713         3    ;  uncertainty k = 0.190597
        25        26        27        28     9      180.000000        0.083730         4    ;  uncertainty k = 0.150415
        25        26        27        31     9        0.000000        2.394481         1    ;  uncertainty k = 0.740964
        25        26        27        31     9      180.000000        4.329586         2    ;  uncertainty k = 0.263950
        25        26        27        31     9        0.000000        0.391713         3    ;  uncertainty k = 0.190597
        25        26        27        31     9      180.000000        0.083730         4    ;  uncertainty k = 0.150415
        26        25        24        50     9        0.000000       -0.010723         1    ;  uncertainty k = 0.237400
        26        25        24        50     9      180.000000        7.958978         2    ;  uncertainty k = 0.442749
        26        25        24        50     9        0.000000        1.209101         3    ;  uncertainty k = 0.164443
        26        25        24        50     9      180.000000        1.723739         4    ;  uncertainty k = 0.144208
        26        27        28        29     9        0.000000        0.797559         1    ;  uncertainty k = 2.309877
        26        27        28        29     9      180.000000       14.114446         2    ;  uncertainty k = 0.418682
        26        27        28        29     9        0.000000        1.402880         3    ;  uncertainty k = 0.442527
        26        27        28        29     9      180.000000        0.112613         4    ;  uncertainty k = 0.206946
        26        27        31        30     9        0.000000        0.797559         1    ;  uncertainty k = 2.309877
        26        27        31        30     9      180.000000       14.114446         2    ;  uncertainty k = 0.418682
        26        27        31        30     9        0.000000        1.402880         3    ;  uncertainty k = 0.442527
        26        27        31        30     9      180.000000        0.112613         4    ;  uncertainty k = 0.206946
        27        26        25        51     9        0.000000        0.135211         1    ;  uncertainty k = 0.398577
        27        26        25        51     9      180.000000        8.519176         2    ;  uncertainty k = 0.273746
        27        26        25        51     9        0.000000        0.803950         3    ;  uncertainty k = 0.224881
        27        26        25        51     9      180.000000        1.348903         4    ;  uncertainty k = 0.152778
        27        28        29        30     9        0.000000        0.015899         1    ;  uncertainty k = 0.518603
        27        28        29        30     9      180.000000       24.370143         2    ;  uncertainty k = 0.366584
        27        28        29        30     9        0.000000       -9.715998         3    ;  uncertainty k = 1.915613
        27        28        29        30     9      180.000000        2.426696         4    ;  uncertainty k = 0.655510
        27        28        29        52     9        0.000000        0.232294         1    ;  uncertainty k = 0.741580
        27        28        29        52     9      180.000000       22.028694         2    ;  uncertainty k = 0.487024
        27        28        29        52     9        0.000000        1.455895         3    ;  uncertainty k = 0.397708
        27        28        29        52     9      180.000000        1.220382         4    ;  uncertainty k = 0.604170
        27        31        30        29     9        0.000000        0.015899         1    ;  uncertainty k = 0.518603
        27        31        30        29     9      180.000000       24.370143         2    ;  uncertainty k = 0.366584
        27        31        30        29     9        0.000000       -9.715998         3    ;  uncertainty k = 1.915613
        27        31        30        29     9      180.000000        2.426696         4    ;  uncertainty k = 0.655510
        27        31        30        53     9        0.000000        0.232294         1    ;  uncertainty k = 0.741580
        27        31        30        53     9      180.000000       22.028694         2    ;  uncertainty k = 0.487024
        27        31        30        53     9        0.000000        1.455895         3    ;  uncertainty k = 0.397708
        27        31        30        53     9      180.000000        1.220382         4    ;  uncertainty k = 0.604170
        28        27        31        30     9        0.000000       -0.822391         1    ;  uncertainty k = 0.769863
        28        27        31        30     9      180.000000       22.038729         2    ;  uncertainty k = 0.271382
        28        27        31        30     9        0.000000       -8.305140         3    ;  uncertainty k = 1.269833
        28        27        31        30     9      180.000000        1.298759         4    ;  uncertainty k = 0.596553
        28        29        30        31     9        0.000000       -0.480158         1    ;  uncertainty k = 0.926462
        28        29        30        31     9      180.000000       16.735216         2    ;  uncertainty k = 1.309662
        28        29        30        31     9        0.000000      -12.155219         3    ;  uncertainty k = 1.939945
        28        29        30        31     9      180.000000        1.991293         4    ;  uncertainty k = 0.750423
        28        29        30        53     9        0.000000        0.154897         1    ;  uncertainty k = 0.970262
        28        29        30        53     9      180.000000       11.842300         2    ;  uncertainty k = 0.614370
        28        29        30        53     9        0.000000        0.922189         3    ;  uncertainty k = 0.757887
        28        29        30        53     9      180.000000        0.630945         4    ;  uncertainty k = 0.172002
        29        28        27        31     9        0.000000       -0.822391         1    ;  uncertainty k = 0.769863
        29        28        27        31     9      180.000000       22.038729         2    ;  uncertainty k = 0.271382
        29        28        27        31     9        0.000000       -8.305140         3    ;  uncertainty k = 1.269833
        29        28        27        31     9      180.000000        1.298759         4    ;  uncertainty k = 0.596553
        31        30        29        52     9        0.000000        0.154897         1    ;  uncertainty k = 0.970262
        31        30        29        52     9      180.000000       11.842300         2    ;  uncertainty k = 0.614370
        31        30        29        52     9        0.000000        0.922189         3    ;  uncertainty k = 0.757887
        31        30        29        52     9      180.000000        0.630945         4    ;  uncertainty k = 0.172002
        39        11        12        41     9        0.000000        0.359872         1    ;  uncertainty k = 0.316166
        39        11        12        41     9      180.000000       -0.360044         2    ;  uncertainty k = 0.197279
        39        11        12        41     9        0.000000        0.364903         3    ;  uncertainty k = 0.128583
        39        11        12        41     9      180.000000       -0.036803         4    ;  uncertainty k = 0.081429
        40        11        12        41     9        0.000000        0.359872         1    ;  uncertainty k = 0.316166
        40        11        12        41     9      180.000000       -0.360044         2    ;  uncertainty k = 0.197279
        40        11        12        41     9        0.000000        0.364903         3    ;  uncertainty k = 0.128583
        40        11        12        41     9      180.000000       -0.036803         4    ;  uncertainty k = 0.081429
        41        12        13        42     9        0.000000        0.423998         1    ;  uncertainty k = 0.297943
        41        12        13        42     9      180.000000       -0.322771         2    ;  uncertainty k = 0.253711
        41        12        13        42     9        0.000000        0.343158         3    ;  uncertainty k = 0.128710
        41        12        13        42     9      180.000000       -0.041305         4    ;  uncertainty k = 0.061986
        41        12        13        43     9        0.000000        0.423998         1    ;  uncertainty k = 0.297943
        41        12        13        43     9      180.000000       -0.322771         2    ;  uncertainty k = 0.253711
        41        12        13        43     9        0.000000        0.343158         3    ;  uncertainty k = 0.128710
        41        12        13        43     9      180.000000       -0.041305         4    ;  uncertainty k = 0.061986
        41        12        16        46     9        0.000000        3.534566         1    ;  uncertainty k = 1.183407
        41        12        16        46     9      180.000000       -0.219654         2    ;  uncertainty k = 0.641097
        41        12        16        46     9        0.000000        0.578188         3    ;  uncertainty k = 0.579178
        41        12        16        46     9      180.000000        0.212498         4    ;  uncertainty k = 0.291708
        44        15        16        46     9        0.000000        0.424000         1    ;  uncertainty k = 0.297943
        44        15        16        46     9      180.000000       -0.322771         2    ;  uncertainty k = 0.253710
        44        15        16        46     9        0.000000        0.343158         3    ;  uncertainty k = 0.128710
        44        15        16        46     9      180.000000       -0.041305         4    ;  uncertainty k = 0.061986
        45        15        16        46     9        0.000000        0.424000         1    ;  uncertainty k = 0.297943
        45        15        16        46     9      180.000000       -0.322771         2    ;  uncertainty k = 0.253710
        45        15        16        46     9        0.000000        0.343158         3    ;  uncertainty k = 0.128710
        45        15        16        46     9      180.000000       -0.041305         4    ;  uncertainty k = 0.061986
        46        16        17        47     9        0.000000        0.359873         1    ;  uncertainty k = 0.316165
        46        16        17        47     9      180.000000       -0.360044         2    ;  uncertainty k = 0.197281
        46        16        17        47     9        0.000000        0.364903         3    ;  uncertainty k = 0.128582
        46        16        17        47     9      180.000000       -0.036803         4    ;  uncertainty k = 0.081429
        46        16        17        48     9        0.000000        0.359873         1    ;  uncertainty k = 0.316165
        46        16        17        48     9      180.000000       -0.360044         2    ;  uncertainty k = 0.197281
        46        16        17        48     9        0.000000        0.364903         3    ;  uncertainty k = 0.128582
        46        16        17        48     9      180.000000       -0.036803         4    ;  uncertainty k = 0.081429
        49        23        24        50     9        0.000000       -0.020811         1    ;  uncertainty k = 0.168739
        49        23        24        50     9      180.000000        7.628630         2    ;  uncertainty k = 0.494067
        49        23        24        50     9        0.000000       -0.419007         3    ;  uncertainty k = 0.338955
        49        23        24        50     9      180.000000        0.009969         4    ;  uncertainty k = 0.203192
        50        24        25        51     9        0.000000        0.041837         1    ;  uncertainty k = 0.123335
        50        24        25        51     9      180.000000        7.941958         2    ;  uncertainty k = 0.372063
        50        24        25        51     9        0.000000       -0.460822         3    ;  uncertainty k = 0.327229
        50        24        25        51     9      180.000000        0.152785         4    ;  uncertainty k = 0.182743
        52        29        30        53     9        0.000000       -0.942648         1    ;  uncertainty k = 1.117582
        52        29        30        53     9      180.000000        4.272735         2    ;  uncertainty k = 0.760818
        52        29        30        53     9        0.000000        1.314863         3    ;  uncertainty k = 0.353594
        52        29        30        53     9      180.000000        0.150448         4    ;  uncertainty k = 0.159865

[ dihedrals ] ; impropers
;       ai        aj        ak        al funct           phase               k        pn
         3         2         4         9     4      180.000000       34.242694         2    ;  uncertainty k = 0.055561
         3         4         9         2     4      180.000000       34.242694         2    ;  uncertainty k = 0.055561
         3         9         2         4     4      180.000000       34.242694         2    ;  uncertainty k = 0.055561
         4         3         5        35     4      180.000000        0.825307         2    ;  uncertainty k = 0.798615
         4         5        35         3     4      180.000000        0.825307         2    ;  uncertainty k = 0.798615
         4        35         3         5     4      180.000000        0.825307         2    ;  uncertainty k = 0.798615
         5         4         6         7     4      180.000000       31.652957         2    ;  uncertainty k = 0.063072
         5         6         7         4     4      180.000000       31.652957         2    ;  uncertainty k = 0.063072
         5         7         4         6     4      180.000000       31.652957         2    ;  uncertainty k = 0.063072
         8         7         9        10     4      180.000000       42.785038         2    ;  uncertainty k = 0.055290
         8         9        10         7     4      180.000000       42.785038         2    ;  uncertainty k = 0.055290
         8        10         7         9     4      180.000000       42.785038         2    ;  uncertainty k = 0.055290
        10         8        11        17     4      180.000000        0.182583         2    ;  uncertainty k = 0.283011
        10        11        17         8     4      180.000000        0.182583         2    ;  uncertainty k = 0.283011
        10        17         8        11     4      180.000000        0.182583         2    ;  uncertainty k = 0.283011
        18        14        19        20     4      180.000000       52.212280         2    ;  uncertainty k = 0.071533
        18        19        20        14     4      180.000000       52.212280         2    ;  uncertainty k = 0.071533
        18        20        14        19     4      180.000000       52.212280         2    ;  uncertainty k = 0.071533
        20        18        21        26     4      180.000000        9.307072         2    ;  uncertainty k = 0.434424
        20        21        26        18     4      180.000000        9.307072         2    ;  uncertainty k = 0.434424
        20        26        18        21     4      180.000000        9.307072         2    ;  uncertainty k = 0.434424
        21        20        22        23     4      180.000000       15.115266         2    ;  uncertainty k = 0.210077
        21        22        23        20     4      180.000000       15.115266         2    ;  uncertainty k = 0.210077
        21        23        20        22     4      180.000000       15.115266         2    ;  uncertainty k = 0.210077
        23        21        24        49     4      180.000000        2.461870         2    ;  uncertainty k = 0.103991
        23        24        49        21     4      180.000000        2.461870         2    ;  uncertainty k = 0.103991
        23        49        21        24     4      180.000000        2.461870         2    ;  uncertainty k = 0.103991
        24        23        25        50     4      180.000000        4.937369         2    ;  uncertainty k = 0.112088
        24        25        50        23     4      180.000000        4.937369         2    ;  uncertainty k = 0.112088
        24        50        23        25     4      180.000000        4.937369         2    ;  uncertainty k = 0.112088
        25        24        26        51     4      180.000000        2.847064         2    ;  uncertainty k = 0.193191
        25        26        51        24     4      180.000000        2.847064         2    ;  uncertainty k = 0.193191
        25        51        24        26     4      180.000000        2.847064         2    ;  uncertainty k = 0.193191
        26        20        25        27     4      180.000000       12.584197         2    ;  uncertainty k = 0.129690
        26        25        27        20     4      180.000000       12.584197         2    ;  uncertainty k = 0.129690
        26        27        20        25     4      180.000000       12.584197         2    ;  uncertainty k = 0.129690
        29        28        30        52     4      180.000000        0.414726         2    ;  uncertainty k = 0.408832
        29        30        52        28     4      180.000000        0.414726         2    ;  uncertainty k = 0.408832
        29        52        28        30     4      180.000000        0.414726         2    ;  uncertainty k = 0.408832
        30        29        31        53     4      180.000000        0.414726         2    ;  uncertainty k = 0.408832
        30        31        53        29     4      180.000000        0.414726         2    ;  uncertainty k = 0.408832
        30        53        29        31     4      180.000000        0.414726         2    ;  uncertainty k = 0.408832

[ pairs ]
;       ai        aj funct
         1         4     1
         1         9     1
         2         5     1
         2         8     1
         2        35     1
         3         6     1
         3         7     1
         3        10     1
         3        32     1
         3        33     1
         3        34     1
         4         8     1
         4        36     1
         4        37     1
         4        38     1
         5         9     1
         5        10     1
         6         8     1
         6        35     1
         7        11     1
         7        17     1
         7        35     1
         7        36     1
         7        37     1
         7        38     1
         8        12     1
         8        16     1
         8        39     1
         8        40     1
         8        47     1
         8        48     1
         9        11     1
         9        17     1
         9        35     1
        10        13     1
        10        15     1
        10        41     1
        10        46     1
        11        14     1
        11        15     1
        11        42     1
        11        43     1
        11        46     1
        11        47     1
        11        48     1
        12        18     1
        12        44     1
        12        45     1
        12        47     1
        12        48     1
        13        17     1
        13        19     1
        13        20     1
        13        39     1
        13        40     1
        13        44     1
        13        45     1
        13        46     1
        14        17     1
        14        21     1
        14        26     1
        14        41     1
        14        46     1
        15        19     1
        15        20     1
        15        41     1
        15        42     1
        15        43     1
        15        47     1
        15        48     1
        16        18     1
        16        39     1
        16        40     1
        16        42     1
        16        43     1
        17        39     1
        17        40     1
        17        41     1
        17        44     1
        17        45     1
        18        22     1
        18        23     1
        18        25     1
        18        27     1
        18        42     1
        18        43     1
        18        44     1
        18        45     1
        19        21     1
        19        26     1
        20        24     1
        20        28     1
        20        31     1
        20        49     1
        20        51     1
        21        25     1
        21        27     1
        21        50     1
        22        24     1
        22        26     1
        22        49     1
        23        26     1
        23        51     1
        24        27     1
        25        28     1
        25        31     1
        25        49     1
        26        29     1
        26        30     1
        26        50     1
        27        51     1
        27        52     1
        27        53     1
        28        53     1
        31        52     1
        39        41     1
        40        41     1
        41        42     1
        41        43     1
        41        46     1
        44        46     1
        45        46     1
        46        47     1
        46        48     1
        49        50     1
        50        51     1
        52        53     1
