; ITP file created by ByteFF-joint-25, 2025-07-14 11:28:38.821005

[ atomtypes ]
;name           bonded.type        at.num        mass        charge   ptype           sigma         epsilon
 c0bf                                   6      0.0000       0.00000       A     3.39773e-01     4.50930e-01    ;  uncertainty sigma = 0.000007, epsilon = 0.000592
 c1bf                                   6      0.0000       0.00000       A     3.31511e-01     4.13145e-01    ;  uncertainty sigma = 0.000011, epsilon = 0.000579
 c2bf                                   6      0.0000       0.00000       A     3.31523e-01     4.13243e-01    ;  uncertainty sigma = 0.000013, epsilon = 0.000737
 c3bf                                   6      0.0000       0.00000       A     3.31511e-01     4.13145e-01    ;  uncertainty sigma = 0.000011, epsilon = 0.000579
 c4bf                                   6      0.0000       0.00000       A     3.39773e-01     4.50930e-01    ;  uncertainty sigma = 0.000007, epsilon = 0.000592
 n5bf                                   7      0.0000       0.00000       A     3.38407e-01     3.93685e-01    ;  uncertainty sigma = 0.000013, epsilon = 0.000791
 c6bf                                   6      0.0000       0.00000       A     3.31545e-01     4.13196e-01    ;  uncertainty sigma = 0.000018, epsilon = 0.000667
 n7bf                                   7      0.0000       0.00000       A     3.38407e-01     3.93685e-01    ;  uncertainty sigma = 0.000013, epsilon = 0.000791
 n8bf                                   7      0.0000       0.00000       A     3.18950e-01     8.99076e-01    ;  uncertainty sigma = 0.000052, epsilon = 0.003577
 c9bf                                   6      0.0000       0.00000       A     3.39774e-01     4.50953e-01    ;  uncertainty sigma = 0.000012, epsilon = 0.001229
 c10bf                                  6      0.0000       0.00000       A     3.39776e-01     4.51373e-01    ;  uncertainty sigma = 0.000009, epsilon = 0.000969
 c11bf                                  6      0.0000       0.00000       A     3.39784e-01     4.51219e-01    ;  uncertainty sigma = 0.000006, epsilon = 0.000696
 n12bf                                  7      0.0000       0.00000       A     3.18079e-01     6.84112e-01    ;  uncertainty sigma = 0.000014, epsilon = 0.001025
 c13bf                                  6      0.0000       0.00000       A     3.39784e-01     4.51219e-01    ;  uncertainty sigma = 0.000006, epsilon = 0.000696
 c14bf                                  6      0.0000       0.00000       A     3.39776e-01     4.51373e-01    ;  uncertainty sigma = 0.000009, epsilon = 0.000969
 c15bf                                  6      0.0000       0.00000       A     3.39774e-01     4.50953e-01    ;  uncertainty sigma = 0.000012, epsilon = 0.001229
 c16bf                                  6      0.0000       0.00000       A     3.31530e-01     4.13306e-01    ;  uncertainty sigma = 0.000024, epsilon = 0.001958
 o17bf                                  8      0.0000       0.00000       A     3.04853e-01     6.12088e-01    ;  uncertainty sigma = 0.000030, epsilon = 0.001067
 c18bf                                  6      0.0000       0.00000       A     3.31545e-01     4.12569e-01    ;  uncertainty sigma = 0.000021, epsilon = 0.001452
 c19bf                                  6      0.0000       0.00000       A     3.31511e-01     4.13737e-01    ;  uncertainty sigma = 0.000010, epsilon = 0.000686
 c20bf                                  6      0.0000       0.00000       A     3.31532e-01     4.13446e-01    ;  uncertainty sigma = 0.000008, epsilon = 0.000696
 f21bf                                  9      0.0000       0.00000       A     3.03425e-01     3.48087e-01    ;  uncertainty sigma = 0.000012, epsilon = 0.000612
 c22bf                                  6      0.0000       0.00000       A     3.31529e-01     4.13314e-01    ;  uncertainty sigma = 0.000009, epsilon = 0.000732
 f23bf                                  9      0.0000       0.00000       A     3.03424e-01     3.48128e-01    ;  uncertainty sigma = 0.000009, epsilon = 0.000666
 c24bf                                  6      0.0000       0.00000       A     3.31513e-01     4.13349e-01    ;  uncertainty sigma = 0.000016, epsilon = 0.000937
 c25bf                                  6      0.0000       0.00000       A     3.31556e-01     4.13526e-01    ;  uncertainty sigma = 0.000016, epsilon = 0.001753
 n26bf                                  7      0.0000       0.00000       A     3.20556e-01     8.53756e-01    ;  uncertainty sigma = 0.000032, epsilon = 0.003460
 n27bf                                  7      0.0000       0.00000       A     3.38413e-01     3.93694e-01    ;  uncertainty sigma = 0.000010, epsilon = 0.000693
 c28bf                                  6      0.0000       0.00000       A     3.31537e-01     4.13587e-01    ;  uncertainty sigma = 0.000007, epsilon = 0.000835
 c29bf                                  6      0.0000       0.00000       A     3.31537e-01     4.13587e-01    ;  uncertainty sigma = 0.000007, epsilon = 0.000835
 n30bf                                  7      0.0000       0.00000       A     3.38413e-01     3.93694e-01    ;  uncertainty sigma = 0.000010, epsilon = 0.000693
 h31bf                                  1      0.0000       0.00000       A     2.60034e-01     8.66332e-02    ;  uncertainty sigma = 0.000007, epsilon = 0.000537
 h32bf                                  1      0.0000       0.00000       A     2.60034e-01     8.66332e-02    ;  uncertainty sigma = 0.000007, epsilon = 0.000537
 h33bf                                  1      0.0000       0.00000       A     2.60034e-01     8.66332e-02    ;  uncertainty sigma = 0.000007, epsilon = 0.000537
 h34bf                                  1      0.0000       0.00000       A     2.62580e-01     6.71311e-02    ;  uncertainty sigma = 0.000016, epsilon = 0.000304
 h35bf                                  1      0.0000       0.00000       A     2.60034e-01     8.66332e-02    ;  uncertainty sigma = 0.000007, epsilon = 0.000537
 h36bf                                  1      0.0000       0.00000       A     2.60034e-01     8.66332e-02    ;  uncertainty sigma = 0.000007, epsilon = 0.000537
 h37bf                                  1      0.0000       0.00000       A     2.60034e-01     8.66332e-02    ;  uncertainty sigma = 0.000007, epsilon = 0.000537
 h38bf                                  1      0.0000       0.00000       A     2.42199e-01     8.66324e-02    ;  uncertainty sigma = 0.000024, epsilon = 0.001250
 h39bf                                  1      0.0000       0.00000       A     2.42199e-01     8.66324e-02    ;  uncertainty sigma = 0.000024, epsilon = 0.001250
 h40bf                                  1      0.0000       0.00000       A     2.59994e-01     8.68892e-02    ;  uncertainty sigma = 0.000026, epsilon = 0.000553
 h41bf                                  1      0.0000       0.00000       A     2.42194e-01     8.66543e-02    ;  uncertainty sigma = 0.000021, epsilon = 0.000863
 h42bf                                  1      0.0000       0.00000       A     2.42194e-01     8.66543e-02    ;  uncertainty sigma = 0.000021, epsilon = 0.000863
 h43bf                                  1      0.0000       0.00000       A     2.42194e-01     8.66545e-02    ;  uncertainty sigma = 0.000021, epsilon = 0.000863
 h44bf                                  1      0.0000       0.00000       A     2.42194e-01     8.66545e-02    ;  uncertainty sigma = 0.000021, epsilon = 0.000863
 h45bf                                  1      0.0000       0.00000       A     2.59994e-01     8.68892e-02    ;  uncertainty sigma = 0.000026, epsilon = 0.000553
 h46bf                                  1      0.0000       0.00000       A     2.42199e-01     8.66324e-02    ;  uncertainty sigma = 0.000024, epsilon = 0.001250
 h47bf                                  1      0.0000       0.00000       A     2.42199e-01     8.66324e-02    ;  uncertainty sigma = 0.000024, epsilon = 0.001250
 h48bf                                  1      0.0000       0.00000       A     2.62528e-01     6.70890e-02    ;  uncertainty sigma = 0.000021, epsilon = 0.000659
 h49bf                                  1      0.0000       0.00000       A     2.62554e-01     6.72511e-02    ;  uncertainty sigma = 0.000015, epsilon = 0.000660
 h50bf                                  1      0.0000       0.00000       A     2.53604e-01     6.70805e-02    ;  uncertainty sigma = 0.000028, epsilon = 0.000600
 h51bf                                  1      0.0000       0.00000       A     2.53604e-01     6.70805e-02    ;  uncertainty sigma = 0.000028, epsilon = 0.000600

[ moleculetype ]
;name             nrexcl
 MOL                   3

[ atoms ]
;       nr            type      resi   res      atom      cgnr      charge          mass ; qtot
         1            c0bf         1   UNL        c0         1    -0.15162       12.0110 ; qtot   -0.152
         2            c1bf         1   UNL        c1         2     0.48649       12.0110 ; qtot    0.335
         3            c2bf         1   UNL        c2         3    -0.41183       12.0110 ; qtot   -0.077
         4            c3bf         1   UNL        c3         4     0.48649       12.0110 ; qtot    0.410
         5            c4bf         1   UNL        c4         5    -0.15162       12.0110 ; qtot    0.258
         6            n5bf         1   UNL        n5         6    -0.77862       14.0070 ; qtot   -0.521
         7            c6bf         1   UNL        c6         7     0.90706       12.0110 ; qtot    0.386
         8            n7bf         1   UNL        n7         8    -0.77862       14.0070 ; qtot   -0.392
         9            n8bf         1   UNL        n8         9    -0.79085       14.0070 ; qtot   -1.183
        10            c9bf         1   UNL        c9        10     0.23390       12.0110 ; qtot   -0.949
        11           c10bf         1   UNL       c10        11    -0.09743       12.0110 ; qtot   -1.047
        12           c11bf         1   UNL       c11        12     0.10795       12.0110 ; qtot   -0.939
        13           n12bf         1   UNL       n12        13    -0.47027       14.0070 ; qtot   -1.409
        14           c13bf         1   UNL       c13        14     0.10795       12.0110 ; qtot   -1.301
        15           c14bf         1   UNL       c14        15    -0.09743       12.0110 ; qtot   -1.398
        16           c15bf         1   UNL       c15        16     0.23390       12.0110 ; qtot   -1.165
        17           c16bf         1   UNL       c16        17     0.69500       12.0110 ; qtot   -0.470
        18           o17bf         1   UNL       o17        18    -0.58842       15.9990 ; qtot   -1.058
        19           c18bf         1   UNL       c18        19    -0.10887       12.0110 ; qtot   -1.167
        20           c19bf         1   UNL       c19        20    -0.10364       12.0110 ; qtot   -1.270
        21           c20bf         1   UNL       c20        21     0.09864       12.0110 ; qtot   -1.172
        22           f21bf         1   UNL       f21        22    -0.12079       18.9980 ; qtot   -1.293
        23           c22bf         1   UNL       c22        23     0.12088       12.0110 ; qtot   -1.172
        24           f23bf         1   UNL       f23        24    -0.12034       18.9980 ; qtot   -1.292
        25           c24bf         1   UNL       c24        25    -0.12956       12.0110 ; qtot   -1.422
        26           c25bf         1   UNL       c25        26     0.07078       12.0110 ; qtot   -1.351
        27           n26bf         1   UNL       n26        27     0.30275       14.0070 ; qtot   -1.048
        28           n27bf         1   UNL       n27        28    -0.47266       14.0070 ; qtot   -1.521
        29           c28bf         1   UNL       c28        29     0.20275       12.0110 ; qtot   -1.318
        30           c29bf         1   UNL       c29        30     0.20275       12.0110 ; qtot   -1.115
        31           n30bf         1   UNL       n30        31    -0.47266       14.0070 ; qtot   -1.588
        32           h31bf         1   UNL       h31        32     0.05868        1.0080 ; qtot   -1.529
        33           h32bf         1   UNL       h32        33     0.05868        1.0080 ; qtot   -1.471
        34           h33bf         1   UNL       h33        34     0.05868        1.0080 ; qtot   -1.412
        35           h34bf         1   UNL       h34        35     0.15114        1.0080 ; qtot   -1.261
        36           h35bf         1   UNL       h35        36     0.05868        1.0080 ; qtot   -1.202
        37           h36bf         1   UNL       h36        37     0.05868        1.0080 ; qtot   -1.143
        38           h37bf         1   UNL       h37        38     0.05868        1.0080 ; qtot   -1.085
        39           h38bf         1   UNL       h38        39     0.05891        1.0080 ; qtot   -1.026
        40           h39bf         1   UNL       h39        40     0.05891        1.0080 ; qtot   -0.967
        41           h40bf         1   UNL       h40        41     0.07237        1.0080 ; qtot   -0.895
        42           h41bf         1   UNL       h41        42     0.05981        1.0080 ; qtot   -0.835
        43           h42bf         1   UNL       h42        43     0.05981        1.0080 ; qtot   -0.775
        44           h43bf         1   UNL       h43        44     0.05981        1.0080 ; qtot   -0.715
        45           h44bf         1   UNL       h44        45     0.05981        1.0080 ; qtot   -0.655
        46           h45bf         1   UNL       h45        46     0.07237        1.0080 ; qtot   -0.583
        47           h46bf         1   UNL       h46        47     0.05891        1.0080 ; qtot   -0.524
        48           h47bf         1   UNL       h47        48     0.05891        1.0080 ; qtot   -0.465
        49           h48bf         1   UNL       h48        49     0.17239        1.0080 ; qtot   -0.293
        50           h49bf         1   UNL       h49        50     0.18281        1.0080 ; qtot   -0.110
        51           h50bf         1   UNL       h50        51     0.05496        1.0080 ; qtot   -0.055
        52           h51bf         1   UNL       h51        52     0.05494        1.0080 ; qtot    0.000

[ bonds ]
;       ai        aj funct               r               k
         1         2     1        0.150631   258312.636768    ;  uncertainty r = 0.000036, k = 5.578436
         1        32     1        0.109444   310537.557666    ;  uncertainty r = 0.000015, k = 1.598088
         1        33     1        0.109444   310537.557666    ;  uncertainty r = 0.000015, k = 1.598088
         1        34     1        0.109444   310537.557666    ;  uncertainty r = 0.000015, k = 1.598088
         2         3     1        0.140287   430446.109863    ;  uncertainty r = 0.000066, k = 4.969217
         2         8     1        0.134238   464612.770313    ;  uncertainty r = 0.000041, k = 6.904087
         3         4     1        0.140287   430446.109863    ;  uncertainty r = 0.000066, k = 4.969217
         3        35     1        0.108737   344393.252734    ;  uncertainty r = 0.000026, k = 3.476286
         4         5     1        0.150631   258312.636768    ;  uncertainty r = 0.000036, k = 5.578436
         4         6     1        0.134238   464612.770313    ;  uncertainty r = 0.000041, k = 6.904087
         5        36     1        0.109444   310537.557666    ;  uncertainty r = 0.000015, k = 1.598088
         5        37     1        0.109444   310537.557666    ;  uncertainty r = 0.000015, k = 1.598088
         5        38     1        0.109444   310537.557666    ;  uncertainty r = 0.000015, k = 1.598088
         6         7     1        0.135351   495763.447070    ;  uncertainty r = 0.000102, k = 13.751618
         7         8     1        0.135351   495763.447070    ;  uncertainty r = 0.000102, k = 13.751618
         7         9     1        0.136652   318374.973145    ;  uncertainty r = 0.000092, k = 21.200785
         9        10     1        0.146381   223708.423486    ;  uncertainty r = 0.000058, k = 14.342670
         9        16     1        0.146381   223708.423486    ;  uncertainty r = 0.000058, k = 14.342768
        10        11     1        0.153378   218045.467334    ;  uncertainty r = 0.000067, k = 7.088220
        10        39     1        0.109551   306518.450781    ;  uncertainty r = 0.000069, k = 2.534282
        10        40     1        0.109551   306518.450781    ;  uncertainty r = 0.000069, k = 2.534282
        11        12     1        0.153480   216617.049121    ;  uncertainty r = 0.000023, k = 7.412723
        11        15     1        0.154451   200722.496875    ;  uncertainty r = 0.000080, k = 20.796785
        11        41     1        0.109350   305021.261133    ;  uncertainty r = 0.000029, k = 3.829702
        12        13     1        0.147066   239433.741309    ;  uncertainty r = 0.000053, k = 14.441706
        12        42     1        0.109439   307434.875488    ;  uncertainty r = 0.000026, k = 1.171544
        12        43     1        0.109439   307434.875488    ;  uncertainty r = 0.000026, k = 1.171544
        13        14     1        0.147066   239433.741309    ;  uncertainty r = 0.000053, k = 14.441669
        13        17     1        0.135414   331353.391797    ;  uncertainty r = 0.000066, k = 10.348261
        14        15     1        0.153480   216617.049121    ;  uncertainty r = 0.000023, k = 7.412681
        14        44     1        0.109439   307434.875488    ;  uncertainty r = 0.000026, k = 1.171521
        14        45     1        0.109439   307434.875488    ;  uncertainty r = 0.000026, k = 1.171521
        15        16     1        0.153378   218045.441797    ;  uncertainty r = 0.000067, k = 7.088228
        15        46     1        0.109350   305021.261133    ;  uncertainty r = 0.000029, k = 3.829660
        16        47     1        0.109551   306518.450781    ;  uncertainty r = 0.000069, k = 2.534287
        16        48     1        0.109551   306518.450781    ;  uncertainty r = 0.000069, k = 2.534287
        17        18     1        0.123628   753856.132715    ;  uncertainty r = 0.000077, k = 7.360032
        17        19     1        0.150837   269636.710400    ;  uncertainty r = 0.000067, k = 18.314546
        19        20     1        0.139353   350233.896094    ;  uncertainty r = 0.000089, k = 9.151869
        19        26     1        0.139253   321116.152002    ;  uncertainty r = 0.000083, k = 4.697491
        20        21     1        0.138635   358305.461328    ;  uncertainty r = 0.000049, k = 5.238947
        20        49     1        0.108648   331316.669434    ;  uncertainty r = 0.000016, k = 2.360098
        21        22     1        0.134872   342700.985107    ;  uncertainty r = 0.000023, k = 3.616520
        21        23     1        0.139007   366274.265234    ;  uncertainty r = 0.000088, k = 3.436542
        23        24     1        0.134760   341623.957520    ;  uncertainty r = 0.000075, k = 2.099472
        23        25     1        0.138446   361807.671582    ;  uncertainty r = 0.000053, k = 4.965639
        25        26     1        0.139166   342132.120459    ;  uncertainty r = 0.000082, k = 4.765831
        25        50     1        0.108662   334992.480957    ;  uncertainty r = 0.000027, k = 2.141187
        26        27     1        0.140413   319447.633887    ;  uncertainty r = 0.000131, k = 4.285210
        27        28     1        0.134420   229055.230225    ;  uncertainty r = 0.000076, k = 9.957201
        27        31     1        0.134420   229055.230225    ;  uncertainty r = 0.000076, k = 9.957201
        28        29     1        0.132965   463550.937305    ;  uncertainty r = 0.000052, k = 7.730519
        29        30     1        0.141781   249584.001709    ;  uncertainty r = 0.000103, k = 15.332670
        29        51     1        0.108418   339910.136572    ;  uncertainty r = 0.000037, k = 1.124302
        30        31     1        0.132965   463550.937305    ;  uncertainty r = 0.000052, k = 7.730519
        30        52     1        0.108418   339910.136572    ;  uncertainty r = 0.000037, k = 1.124302

[ angles ]
;       ai        aj        ak funct           theta             cth
         1         2         3     1      122.372604      418.636154    ;  uncertainty theta = 0.002202, k = 0.178974
         1         2         8     1      118.694351      504.935496    ;  uncertainty theta = 0.002079, k = 0.183388
         2         1        32     1      108.943436      385.594359    ;  uncertainty theta = 0.001293, k = 0.046207
         2         1        33     1      108.943436      385.594359    ;  uncertainty theta = 0.001293, k = 0.046207
         2         1        34     1      108.943436      385.594359    ;  uncertainty theta = 0.001293, k = 0.046207
         2         3         4     1      116.498520      460.598349    ;  uncertainty theta = 0.005053, k = 0.122034
         2         3        35     1      121.718430      273.369457    ;  uncertainty theta = 0.001159, k = 0.085456
         2         8         7     1      115.347641      408.898855    ;  uncertainty theta = 0.006383, k = 0.283100
         3         2         8     1      120.465759      656.141103    ;  uncertainty theta = 0.004510, k = 0.102828
         3         4         5     1      122.372604      418.636154    ;  uncertainty theta = 0.002202, k = 0.178974
         3         4         6     1      120.465759      656.141103    ;  uncertainty theta = 0.004510, k = 0.102828
         4         3        35     1      121.718430      273.369457    ;  uncertainty theta = 0.001159, k = 0.085456
         4         5        36     1      108.943436      385.594359    ;  uncertainty theta = 0.001293, k = 0.046207
         4         5        37     1      108.943436      385.594359    ;  uncertainty theta = 0.001293, k = 0.046207
         4         5        38     1      108.943436      385.594359    ;  uncertainty theta = 0.001293, k = 0.046207
         4         6         7     1      115.347641      408.898855    ;  uncertainty theta = 0.006383, k = 0.283100
         5         4         6     1      118.694351      504.935496    ;  uncertainty theta = 0.002079, k = 0.183388
         6         7         8     1      129.113480      717.709797    ;  uncertainty theta = 0.004729, k = 0.118642
         6         7         9     1      119.537033      549.082007    ;  uncertainty theta = 0.007399, k = 0.202209
         7         9        10     1      113.699562      433.285581    ;  uncertainty theta = 0.003934, k = 0.215172
         7         9        16     1      113.699562      433.285581    ;  uncertainty theta = 0.003934, k = 0.215172
         8         7         9     1      119.537033      549.082007    ;  uncertainty theta = 0.007399, k = 0.202209
         9        10        11     1      105.543358      834.662672    ;  uncertainty theta = 0.001817, k = 0.093259
         9        10        39     1      108.562340      456.415882    ;  uncertainty theta = 0.001202, k = 0.062362
         9        10        40     1      108.562340      456.415882    ;  uncertainty theta = 0.001202, k = 0.062362
         9        16        15     1      105.543358      834.662672    ;  uncertainty theta = 0.001817, k = 0.093260
         9        16        47     1      108.562340      456.415882    ;  uncertainty theta = 0.001202, k = 0.062362
         9        16        48     1      108.562340      456.415882    ;  uncertainty theta = 0.001202, k = 0.062362
        10         9        16     1      112.639450      489.228386    ;  uncertainty theta = 0.009972, k = 0.334405
        10        11        12     1      113.001526      495.885112    ;  uncertainty theta = 0.002967, k = 0.272650
        10        11        15     1      106.407143      696.228300    ;  uncertainty theta = 0.000820, k = 0.121960
        10        11        41     1      108.909218      387.529593    ;  uncertainty theta = 0.002428, k = 0.196423
        11        10        39     1      109.942749      401.681046    ;  uncertainty theta = 0.001744, k = 0.042629
        11        10        40     1      109.942749      401.681046    ;  uncertainty theta = 0.001744, k = 0.042629
        11        12        13     1      106.107704      800.252694    ;  uncertainty theta = 0.003120, k = 0.175972
        11        12        42     1      109.812805      398.157914    ;  uncertainty theta = 0.002056, k = 0.096133
        11        12        43     1      109.812805      398.157914    ;  uncertainty theta = 0.002056, k = 0.096133
        11        15        14     1      106.536072      683.535718    ;  uncertainty theta = 0.002057, k = 0.120116
        11        15        16     1      106.407143      696.228492    ;  uncertainty theta = 0.000820, k = 0.121960
        11        15        46     1      109.787766      408.249925    ;  uncertainty theta = 0.001833, k = 0.098421
        12        11        15     1      106.536072      683.535654    ;  uncertainty theta = 0.002057, k = 0.120117
        12        11        41     1      108.976547      381.109245    ;  uncertainty theta = 0.002391, k = 0.150517
        12        13        14     1      114.291725      544.244257    ;  uncertainty theta = 0.003124, k = 0.147477
        12        13        17     1      117.970779      361.267964    ;  uncertainty theta = 0.004359, k = 0.080459
        13        12        42     1      109.290787      458.934703    ;  uncertainty theta = 0.001401, k = 0.102756
        13        12        43     1      109.290787      458.934703    ;  uncertainty theta = 0.001401, k = 0.102756
        13        14        15     1      106.107704      800.252694    ;  uncertainty theta = 0.003120, k = 0.175972
        13        14        44     1      109.290787      458.934703    ;  uncertainty theta = 0.001401, k = 0.102756
        13        14        45     1      109.290787      458.934703    ;  uncertainty theta = 0.001401, k = 0.102756
        13        17        18     1      124.806175      736.294812    ;  uncertainty theta = 0.001888, k = 0.120135
        13        17        19     1      112.385757      375.639387    ;  uncertainty theta = 0.003389, k = 0.235872
        14        13        17     1      117.970779      361.267996    ;  uncertainty theta = 0.004359, k = 0.080459
        14        15        16     1      113.001526      495.885112    ;  uncertainty theta = 0.002967, k = 0.272650
        14        15        46     1      108.976547      381.109245    ;  uncertainty theta = 0.002391, k = 0.150517
        15        11        41     1      109.787766      408.249925    ;  uncertainty theta = 0.001833, k = 0.098421
        15        14        44     1      109.812805      398.157914    ;  uncertainty theta = 0.002056, k = 0.096133
        15        14        45     1      109.812805      398.157914    ;  uncertainty theta = 0.002056, k = 0.096133
        15        16        47     1      109.942749      401.681014    ;  uncertainty theta = 0.001744, k = 0.042629
        15        16        48     1      109.942749      401.681014    ;  uncertainty theta = 0.001744, k = 0.042629
        16        15        46     1      108.909218      387.529561    ;  uncertainty theta = 0.002428, k = 0.196423
        17        19        20     1      121.185143      378.299428    ;  uncertainty theta = 0.007144, k = 0.103895
        17        19        26     1      121.823257      351.456447    ;  uncertainty theta = 0.007663, k = 0.405809
        18        17        19     1      124.646217      483.358649    ;  uncertainty theta = 0.004067, k = 0.281718
        19        20        21     1      121.515732      473.777828    ;  uncertainty theta = 0.002700, k = 0.095005
        19        20        49     1      120.621483      263.009530    ;  uncertainty theta = 0.002836, k = 0.214769
        19        26        25     1      125.957596      389.252326    ;  uncertainty theta = 0.007696, k = 0.217884
        19        26        27     1      116.490517      423.724232    ;  uncertainty theta = 0.004981, k = 0.403533
        20        19        26     1      121.873230      446.195803    ;  uncertainty theta = 0.009567, k = 0.145200
        20        21        22     1      120.105858      489.658431    ;  uncertainty theta = 0.001949, k = 0.148337
        20        21        23     1      120.514236      343.096012    ;  uncertainty theta = 0.002630, k = 0.074699
        21        20        49     1      119.564491      290.496654    ;  uncertainty theta = 0.003738, k = 0.124317
        21        23        24     1      118.742958      459.964135    ;  uncertainty theta = 0.001443, k = 0.067785
        21        23        25     1      120.917480      342.800803    ;  uncertainty theta = 0.003502, k = 0.148312
        22        21        23     1      118.582474      464.051414    ;  uncertainty theta = 0.001618, k = 0.075653
        23        25        26     1      120.383591      488.530074    ;  uncertainty theta = 0.004135, k = 0.068449
        23        25        50     1      120.611610      286.282807    ;  uncertainty theta = 0.002761, k = 0.126559
        24        23        25     1      119.863907      496.171032    ;  uncertainty theta = 0.002440, k = 0.106536
        25        26        27     1      117.717972      454.033812    ;  uncertainty theta = 0.003666, k = 0.168530
        26        25        50     1      119.464798      262.486658    ;  uncertainty theta = 0.003888, k = 0.122789
        26        27        28     1      116.126328      431.578489    ;  uncertainty theta = 0.007050, k = 0.159434
        26        27        31     1      116.126328      431.578489    ;  uncertainty theta = 0.007050, k = 0.159434
        27        28        29     1      105.326515      920.839563    ;  uncertainty theta = 0.004731, k = 0.165593
        27        31        30     1      105.326515      920.839563    ;  uncertainty theta = 0.004731, k = 0.165593
        28        27        31     1      113.930405     1161.530649    ;  uncertainty theta = 0.004081, k = 0.199051
        28        29        30     1      108.874611      885.375859    ;  uncertainty theta = 0.003815, k = 0.097431
        28        29        51     1      119.790878      274.219077    ;  uncertainty theta = 0.003825, k = 0.115835
        29        30        31     1      108.874611      885.375859    ;  uncertainty theta = 0.003815, k = 0.097431
        29        30        52     1      127.065453      242.460680    ;  uncertainty theta = 0.004115, k = 0.077998
        30        29        51     1      127.065453      242.460680    ;  uncertainty theta = 0.004115, k = 0.077998
        31        30        52     1      119.790878      274.219077    ;  uncertainty theta = 0.003825, k = 0.115835
        32         1        33     1      107.153793      312.530167    ;  uncertainty theta = 0.001242, k = 0.032267
        32         1        34     1      107.153793      312.530167    ;  uncertainty theta = 0.001242, k = 0.032267
        33         1        34     1      107.153793      312.530167    ;  uncertainty theta = 0.001242, k = 0.032267
        36         5        37     1      107.153793      312.530167    ;  uncertainty theta = 0.001242, k = 0.032267
        36         5        38     1      107.153793      312.530167    ;  uncertainty theta = 0.001242, k = 0.032267
        37         5        38     1      107.153793      312.530167    ;  uncertainty theta = 0.001242, k = 0.032267
        39        10        40     1      105.123001      312.324913    ;  uncertainty theta = 0.002382, k = 0.114503
        42        12        43     1      105.371437      309.387890    ;  uncertainty theta = 0.003860, k = 0.079571
        44        14        45     1      105.371437      309.387890    ;  uncertainty theta = 0.003860, k = 0.079571
        47        16        48     1      105.123001      312.324913    ;  uncertainty theta = 0.002382, k = 0.114503

[ dihedrals ] ; propers for gromacs 4.5 or higher, use funct 9
;       ai        aj        ak        al funct           phase               k        pn
         1         2         3         4     9        0.000000       -0.007202         1    ;  uncertainty k = 0.501717
         1         2         3         4     9      180.000000        7.613770         2    ;  uncertainty k = 0.266340
         1         2         3         4     9        0.000000        0.944105         3    ;  uncertainty k = 0.227996
         1         2         3         4     9      180.000000        1.305657         4    ;  uncertainty k = 0.239337
         1         2         3        35     9        0.000000       -0.261675         1    ;  uncertainty k = 0.315637
         1         2         3        35     9      180.000000        6.874962         2    ;  uncertainty k = 0.342650
         1         2         3        35     9        0.000000        0.656535         3    ;  uncertainty k = 0.284603
         1         2         3        35     9      180.000000        0.765991         4    ;  uncertainty k = 0.276599
         1         2         8         7     9        0.000000        0.048315         1    ;  uncertainty k = 0.979765
         1         2         8         7     9      180.000000       15.003732         2    ;  uncertainty k = 0.544478
         1         2         8         7     9        0.000000        2.381190         3    ;  uncertainty k = 0.363196
         1         2         8         7     9      180.000000        1.660639         4    ;  uncertainty k = 0.462769
         2         3         4         5     9        0.000000       -0.007202         1    ;  uncertainty k = 0.501717
         2         3         4         5     9      180.000000        7.613770         2    ;  uncertainty k = 0.266340
         2         3         4         5     9        0.000000        0.944105         3    ;  uncertainty k = 0.227996
         2         3         4         5     9      180.000000        1.305657         4    ;  uncertainty k = 0.239337
         2         3         4         6     9        0.000000       -0.216009         1    ;  uncertainty k = 0.356936
         2         3         4         6     9      180.000000       11.910555         2    ;  uncertainty k = 0.424709
         2         3         4         6     9        0.000000       -1.407438         3    ;  uncertainty k = 0.758939
         2         3         4         6     9      180.000000        0.980955         4    ;  uncertainty k = 0.077687
         2         8         7         6     9        0.000000       -0.609060         1    ;  uncertainty k = 0.758199
         2         8         7         6     9      180.000000        8.692615         2    ;  uncertainty k = 0.791818
         2         8         7         6     9        0.000000        0.670286         3    ;  uncertainty k = 0.621159
         2         8         7         6     9      180.000000        0.786580         4    ;  uncertainty k = 0.112571
         2         8         7         9     9        0.000000        0.521917         1    ;  uncertainty k = 0.979110
         2         8         7         9     9      180.000000       10.533274         2    ;  uncertainty k = 0.414227
         2         8         7         9     9        0.000000        1.726081         3    ;  uncertainty k = 0.365721
         2         8         7         9     9      180.000000        0.994637         4    ;  uncertainty k = 0.141068
         3         2         1        32     9        0.000000       -0.250297         1    ;  uncertainty k = 0.274873
         3         2         1        32     9      180.000000        2.290444         2    ;  uncertainty k = 0.171777
         3         2         1        32     9        0.000000        0.278065         3    ;  uncertainty k = 0.038017
         3         2         1        32     9      180.000000        0.146673         4    ;  uncertainty k = 0.025666
         3         2         1        33     9        0.000000       -0.250297         1    ;  uncertainty k = 0.274873
         3         2         1        33     9      180.000000        2.290444         2    ;  uncertainty k = 0.171777
         3         2         1        33     9        0.000000        0.278065         3    ;  uncertainty k = 0.038017
         3         2         1        33     9      180.000000        0.146673         4    ;  uncertainty k = 0.025666
         3         2         1        34     9        0.000000       -0.250297         1    ;  uncertainty k = 0.274873
         3         2         1        34     9      180.000000        2.290444         2    ;  uncertainty k = 0.171777
         3         2         1        34     9        0.000000        0.278065         3    ;  uncertainty k = 0.038017
         3         2         1        34     9      180.000000        0.146673         4    ;  uncertainty k = 0.025666
         3         2         8         7     9        0.000000       -0.347754         1    ;  uncertainty k = 0.474198
         3         2         8         7     9      180.000000       15.075407         2    ;  uncertainty k = 0.177114
         3         2         8         7     9        0.000000        0.171723         3    ;  uncertainty k = 0.438996
         3         2         8         7     9      180.000000        1.128465         4    ;  uncertainty k = 0.364424
         3         4         5        36     9        0.000000       -0.250297         1    ;  uncertainty k = 0.274873
         3         4         5        36     9      180.000000        2.290444         2    ;  uncertainty k = 0.171777
         3         4         5        36     9        0.000000        0.278065         3    ;  uncertainty k = 0.038017
         3         4         5        36     9      180.000000        0.146673         4    ;  uncertainty k = 0.025666
         3         4         5        37     9        0.000000       -0.250297         1    ;  uncertainty k = 0.274873
         3         4         5        37     9      180.000000        2.290444         2    ;  uncertainty k = 0.171777
         3         4         5        37     9        0.000000        0.278065         3    ;  uncertainty k = 0.038017
         3         4         5        37     9      180.000000        0.146673         4    ;  uncertainty k = 0.025666
         3         4         5        38     9        0.000000       -0.250297         1    ;  uncertainty k = 0.274873
         3         4         5        38     9      180.000000        2.290444         2    ;  uncertainty k = 0.171777
         3         4         5        38     9        0.000000        0.278065         3    ;  uncertainty k = 0.038017
         3         4         5        38     9      180.000000        0.146673         4    ;  uncertainty k = 0.025666
         3         4         6         7     9        0.000000       -0.347754         1    ;  uncertainty k = 0.474198
         3         4         6         7     9      180.000000       15.075407         2    ;  uncertainty k = 0.177114
         3         4         6         7     9        0.000000        0.171723         3    ;  uncertainty k = 0.438996
         3         4         6         7     9      180.000000        1.128465         4    ;  uncertainty k = 0.364424
         4         3         2         8     9        0.000000       -0.216009         1    ;  uncertainty k = 0.356936
         4         3         2         8     9      180.000000       11.910555         2    ;  uncertainty k = 0.424709
         4         3         2         8     9        0.000000       -1.407438         3    ;  uncertainty k = 0.758939
         4         3         2         8     9      180.000000        0.980955         4    ;  uncertainty k = 0.077687
         4         6         7         8     9        0.000000       -0.609060         1    ;  uncertainty k = 0.758199
         4         6         7         8     9      180.000000        8.692615         2    ;  uncertainty k = 0.791818
         4         6         7         8     9        0.000000        0.670286         3    ;  uncertainty k = 0.621159
         4         6         7         8     9      180.000000        0.786580         4    ;  uncertainty k = 0.112571
         4         6         7         9     9        0.000000        0.521917         1    ;  uncertainty k = 0.979110
         4         6         7         9     9      180.000000       10.533274         2    ;  uncertainty k = 0.414227
         4         6         7         9     9        0.000000        1.726081         3    ;  uncertainty k = 0.365721
         4         6         7         9     9      180.000000        0.994637         4    ;  uncertainty k = 0.141068
         5         4         3        35     9        0.000000       -0.261675         1    ;  uncertainty k = 0.315637
         5         4         3        35     9      180.000000        6.874962         2    ;  uncertainty k = 0.342650
         5         4         3        35     9        0.000000        0.656535         3    ;  uncertainty k = 0.284603
         5         4         3        35     9      180.000000        0.765991         4    ;  uncertainty k = 0.276599
         5         4         6         7     9        0.000000        0.048315         1    ;  uncertainty k = 0.979765
         5         4         6         7     9      180.000000       15.003732         2    ;  uncertainty k = 0.544478
         5         4         6         7     9        0.000000        2.381190         3    ;  uncertainty k = 0.363196
         5         4         6         7     9      180.000000        1.660639         4    ;  uncertainty k = 0.462769
         6         4         3        35     9        0.000000        0.224609         1    ;  uncertainty k = 0.474805
         6         4         3        35     9      180.000000        8.441723         2    ;  uncertainty k = 0.328864
         6         4         3        35     9        0.000000        1.108367         3    ;  uncertainty k = 0.321336
         6         4         3        35     9      180.000000        1.600213         4    ;  uncertainty k = 0.093449
         6         4         5        36     9        0.000000        0.603364         1    ;  uncertainty k = 0.264623
         6         4         5        36     9      180.000000        3.634560         2    ;  uncertainty k = 0.065840
         6         4         5        36     9        0.000000        0.492173         3    ;  uncertainty k = 0.029988
         6         4         5        36     9      180.000000        0.275109         4    ;  uncertainty k = 0.045162
         6         4         5        37     9        0.000000        0.603364         1    ;  uncertainty k = 0.264623
         6         4         5        37     9      180.000000        3.634560         2    ;  uncertainty k = 0.065840
         6         4         5        37     9        0.000000        0.492173         3    ;  uncertainty k = 0.029988
         6         4         5        37     9      180.000000        0.275109         4    ;  uncertainty k = 0.045162
         6         4         5        38     9        0.000000        0.603364         1    ;  uncertainty k = 0.264623
         6         4         5        38     9      180.000000        3.634560         2    ;  uncertainty k = 0.065840
         6         4         5        38     9        0.000000        0.492173         3    ;  uncertainty k = 0.029988
         6         4         5        38     9      180.000000        0.275109         4    ;  uncertainty k = 0.045162
         6         7         9        10     9        0.000000        5.106263         1    ;  uncertainty k = 0.513053
         6         7         9        10     9      180.000000       11.756744         2    ;  uncertainty k = 0.134928
         6         7         9        10     9        0.000000        0.174633         3    ;  uncertainty k = 0.195421
         6         7         9        10     9      180.000000       -0.347384         4    ;  uncertainty k = 0.051935
         6         7         9        16     9        0.000000        5.106262         1    ;  uncertainty k = 0.513053
         6         7         9        16     9      180.000000       11.756744         2    ;  uncertainty k = 0.134928
         6         7         9        16     9        0.000000        0.174633         3    ;  uncertainty k = 0.195420
         6         7         9        16     9      180.000000       -0.347384         4    ;  uncertainty k = 0.051934
         7         9        10        11     9        0.000000       -5.472950         1    ;  uncertainty k = 1.903105
         7         9        10        11     9      180.000000        0.716175         2    ;  uncertainty k = 0.687896
         7         9        10        11     9        0.000000        0.811633         3    ;  uncertainty k = 0.285403
         7         9        10        11     9      180.000000        0.315930         4    ;  uncertainty k = 0.127584
         7         9        10        39     9        0.000000       -0.203572         1    ;  uncertainty k = 0.772783
         7         9        10        39     9      180.000000        1.020940         2    ;  uncertainty k = 0.423811
         7         9        10        39     9        0.000000        0.580937         3    ;  uncertainty k = 0.130796
         7         9        10        39     9      180.000000        0.377931         4    ;  uncertainty k = 0.101923
         7         9        10        40     9        0.000000       -0.203572         1    ;  uncertainty k = 0.772783
         7         9        10        40     9      180.000000        1.020940         2    ;  uncertainty k = 0.423811
         7         9        10        40     9        0.000000        0.580937         3    ;  uncertainty k = 0.130796
         7         9        10        40     9      180.000000        0.377931         4    ;  uncertainty k = 0.101923
         7         9        16        15     9        0.000000       -5.472951         1    ;  uncertainty k = 1.903105
         7         9        16        15     9      180.000000        0.716175         2    ;  uncertainty k = 0.687896
         7         9        16        15     9        0.000000        0.811634         3    ;  uncertainty k = 0.285402
         7         9        16        15     9      180.000000        0.315929         4    ;  uncertainty k = 0.127584
         7         9        16        47     9        0.000000       -0.203573         1    ;  uncertainty k = 0.772782
         7         9        16        47     9      180.000000        1.020940         2    ;  uncertainty k = 0.423811
         7         9        16        47     9        0.000000        0.580937         3    ;  uncertainty k = 0.130796
         7         9        16        47     9      180.000000        0.377930         4    ;  uncertainty k = 0.101923
         7         9        16        48     9        0.000000       -0.203573         1    ;  uncertainty k = 0.772782
         7         9        16        48     9      180.000000        1.020940         2    ;  uncertainty k = 0.423811
         7         9        16        48     9        0.000000        0.580937         3    ;  uncertainty k = 0.130796
         7         9        16        48     9      180.000000        0.377930         4    ;  uncertainty k = 0.101923
         8         2         1        32     9        0.000000        0.603364         1    ;  uncertainty k = 0.264623
         8         2         1        32     9      180.000000        3.634560         2    ;  uncertainty k = 0.065840
         8         2         1        32     9        0.000000        0.492173         3    ;  uncertainty k = 0.029988
         8         2         1        32     9      180.000000        0.275109         4    ;  uncertainty k = 0.045162
         8         2         1        33     9        0.000000        0.603364         1    ;  uncertainty k = 0.264623
         8         2         1        33     9      180.000000        3.634560         2    ;  uncertainty k = 0.065840
         8         2         1        33     9        0.000000        0.492173         3    ;  uncertainty k = 0.029988
         8         2         1        33     9      180.000000        0.275109         4    ;  uncertainty k = 0.045162
         8         2         1        34     9        0.000000        0.603364         1    ;  uncertainty k = 0.264623
         8         2         1        34     9      180.000000        3.634560         2    ;  uncertainty k = 0.065840
         8         2         1        34     9        0.000000        0.492173         3    ;  uncertainty k = 0.029988
         8         2         1        34     9      180.000000        0.275109         4    ;  uncertainty k = 0.045162
         8         2         3        35     9        0.000000        0.224609         1    ;  uncertainty k = 0.474805
         8         2         3        35     9      180.000000        8.441723         2    ;  uncertainty k = 0.328864
         8         2         3        35     9        0.000000        1.108367         3    ;  uncertainty k = 0.321336
         8         2         3        35     9      180.000000        1.600213         4    ;  uncertainty k = 0.093449
         8         7         9        10     9        0.000000        5.106263         1    ;  uncertainty k = 0.513053
         8         7         9        10     9      180.000000       11.756744         2    ;  uncertainty k = 0.134928
         8         7         9        10     9        0.000000        0.174633         3    ;  uncertainty k = 0.195421
         8         7         9        10     9      180.000000       -0.347384         4    ;  uncertainty k = 0.051935
         8         7         9        16     9        0.000000        5.106262         1    ;  uncertainty k = 0.513053
         8         7         9        16     9      180.000000       11.756744         2    ;  uncertainty k = 0.134928
         8         7         9        16     9        0.000000        0.174633         3    ;  uncertainty k = 0.195420
         8         7         9        16     9      180.000000       -0.347384         4    ;  uncertainty k = 0.051934
         9        10        11        12     9        0.000000       -1.986983         1    ;  uncertainty k = 1.131585
         9        10        11        12     9      180.000000        0.974418         2    ;  uncertainty k = 0.865255
         9        10        11        12     9        0.000000        1.658617         3    ;  uncertainty k = 0.387465
         9        10        11        12     9      180.000000       -0.170489         4    ;  uncertainty k = 0.236446
         9        10        11        15     9        0.000000       -0.248944         1    ;  uncertainty k = 1.669287
         9        10        11        15     9      180.000000        6.161827         2    ;  uncertainty k = 1.110762
         9        10        11        15     9        0.000000        0.670927         3    ;  uncertainty k = 0.347090
         9        10        11        15     9      180.000000       -1.488831         4    ;  uncertainty k = 0.506459
         9        10        11        41     9        0.000000        0.565924         1    ;  uncertainty k = 0.856652
         9        10        11        41     9      180.000000        1.324273         2    ;  uncertainty k = 0.513614
         9        10        11        41     9        0.000000        1.171168         3    ;  uncertainty k = 0.217599
         9        10        11        41     9      180.000000       -0.072433         4    ;  uncertainty k = 0.184790
         9        16        15        11     9        0.000000       -0.248943         1    ;  uncertainty k = 1.669287
         9        16        15        11     9      180.000000        6.161829         2    ;  uncertainty k = 1.110761
         9        16        15        11     9        0.000000        0.670927         3    ;  uncertainty k = 0.347090
         9        16        15        11     9      180.000000       -1.488831         4    ;  uncertainty k = 0.506459
         9        16        15        14     9        0.000000       -1.986983         1    ;  uncertainty k = 1.131581
         9        16        15        14     9      180.000000        0.974419         2    ;  uncertainty k = 0.865256
         9        16        15        14     9        0.000000        1.658617         3    ;  uncertainty k = 0.387464
         9        16        15        14     9      180.000000       -0.170489         4    ;  uncertainty k = 0.236446
         9        16        15        46     9        0.000000        0.565926         1    ;  uncertainty k = 0.856651
         9        16        15        46     9      180.000000        1.324272         2    ;  uncertainty k = 0.513614
         9        16        15        46     9        0.000000        1.171168         3    ;  uncertainty k = 0.217601
         9        16        15        46     9      180.000000       -0.072433         4    ;  uncertainty k = 0.184790
        10         9        16        15     9        0.000000        0.409930         1    ;  uncertainty k = 1.033845
        10         9        16        15     9      180.000000        1.423325         2    ;  uncertainty k = 1.181231
        10         9        16        15     9        0.000000        0.860226         3    ;  uncertainty k = 0.332034
        10         9        16        15     9      180.000000        0.010765         4    ;  uncertainty k = 0.168707
        10         9        16        47     9        0.000000       -2.106813         1    ;  uncertainty k = 0.722683
        10         9        16        47     9      180.000000        1.271153         2    ;  uncertainty k = 0.391419
        10         9        16        47     9        0.000000        1.144989         3    ;  uncertainty k = 0.081016
        10         9        16        47     9      180.000000        0.249969         4    ;  uncertainty k = 0.124009
        10         9        16        48     9        0.000000       -2.106813         1    ;  uncertainty k = 0.722683
        10         9        16        48     9      180.000000        1.271153         2    ;  uncertainty k = 0.391419
        10         9        16        48     9        0.000000        1.144989         3    ;  uncertainty k = 0.081016
        10         9        16        48     9      180.000000        0.249969         4    ;  uncertainty k = 0.124009
        10        11        12        13     9        0.000000       -2.553642         1    ;  uncertainty k = 1.026054
        10        11        12        13     9      180.000000       -0.018661         2    ;  uncertainty k = 0.745822
        10        11        12        13     9        0.000000        1.607209         3    ;  uncertainty k = 0.236201
        10        11        12        13     9      180.000000       -0.188588         4    ;  uncertainty k = 0.120205
        10        11        12        42     9        0.000000       -0.498818         1    ;  uncertainty k = 0.107247
        10        11        12        42     9      180.000000       -0.409706         2    ;  uncertainty k = 0.197166
        10        11        12        42     9        0.000000        0.564543         3    ;  uncertainty k = 0.186998
        10        11        12        42     9      180.000000       -0.072177         4    ;  uncertainty k = 0.062323
        10        11        12        43     9        0.000000       -0.498818         1    ;  uncertainty k = 0.107247
        10        11        12        43     9      180.000000       -0.409706         2    ;  uncertainty k = 0.197166
        10        11        12        43     9        0.000000        0.564543         3    ;  uncertainty k = 0.186998
        10        11        12        43     9      180.000000       -0.072177         4    ;  uncertainty k = 0.062323
        10        11        15        14     9        0.000000       -3.847150         1    ;  uncertainty k = 0.842081
        10        11        15        14     9      180.000000        0.994502         2    ;  uncertainty k = 1.017626
        10        11        15        14     9        0.000000        1.189094         3    ;  uncertainty k = 0.581588
        10        11        15        14     9      180.000000       -0.416044         4    ;  uncertainty k = 0.334399
        10        11        15        16     9        0.000000       -3.896618         1    ;  uncertainty k = 1.087275
        10        11        15        16     9      180.000000        1.035025         2    ;  uncertainty k = 1.026286
        10        11        15        16     9        0.000000        1.207838         3    ;  uncertainty k = 0.671623
        10        11        15        16     9      180.000000       -0.436931         4    ;  uncertainty k = 0.343366
        10        11        15        46     9        0.000000       -1.223112         1    ;  uncertainty k = 0.611377
        10        11        15        46     9      180.000000        0.489634         2    ;  uncertainty k = 0.414978
        10        11        15        46     9        0.000000        0.997353         3    ;  uncertainty k = 0.241670
        10        11        15        46     9      180.000000        0.066778         4    ;  uncertainty k = 0.087125
        11        10         9        16     9        0.000000        0.409931         1    ;  uncertainty k = 1.033845
        11        10         9        16     9      180.000000        1.423324         2    ;  uncertainty k = 1.181232
        11        10         9        16     9        0.000000        0.860226         3    ;  uncertainty k = 0.332034
        11        10         9        16     9      180.000000        0.010765         4    ;  uncertainty k = 0.168708
        11        12        13        14     9        0.000000       -0.577894         1    ;  uncertainty k = 0.965263
        11        12        13        14     9      180.000000        0.209543         2    ;  uncertainty k = 0.707884
        11        12        13        14     9        0.000000        0.796577         3    ;  uncertainty k = 0.216244
        11        12        13        14     9      180.000000        0.149599         4    ;  uncertainty k = 0.256658
        11        12        13        17     9        0.000000        0.004161         1    ;  uncertainty k = 0.752763
        11        12        13        17     9      180.000000       -0.522539         2    ;  uncertainty k = 0.367031
        11        12        13        17     9        0.000000        0.220162         3    ;  uncertainty k = 0.308628
        11        12        13        17     9      180.000000        0.750105         4    ;  uncertainty k = 0.144488
        11        15        14        13     9        0.000000       -0.756384         1    ;  uncertainty k = 0.691038
        11        15        14        13     9      180.000000        5.856437         2    ;  uncertainty k = 0.964493
        11        15        14        13     9        0.000000        0.445306         3    ;  uncertainty k = 0.293243
        11        15        14        13     9      180.000000       -1.144824         4    ;  uncertainty k = 0.220768
        11        15        14        44     9        0.000000        0.480411         1    ;  uncertainty k = 0.492791
        11        15        14        44     9      180.000000       -1.104496         2    ;  uncertainty k = 0.672329
        11        15        14        44     9        0.000000       -0.270073         3    ;  uncertainty k = 0.170671
        11        15        14        44     9      180.000000       -0.013160         4    ;  uncertainty k = 0.174221
        11        15        14        45     9        0.000000        0.480411         1    ;  uncertainty k = 0.492791
        11        15        14        45     9      180.000000       -1.104496         2    ;  uncertainty k = 0.672329
        11        15        14        45     9        0.000000       -0.270073         3    ;  uncertainty k = 0.170671
        11        15        14        45     9      180.000000       -0.013160         4    ;  uncertainty k = 0.174221
        11        15        16        47     9        0.000000        0.646621         1    ;  uncertainty k = 0.517783
        11        15        16        47     9      180.000000       -1.099688         2    ;  uncertainty k = 0.743824
        11        15        16        47     9        0.000000       -0.334779         3    ;  uncertainty k = 0.213643
        11        15        16        47     9      180.000000       -0.018734         4    ;  uncertainty k = 0.206092
        11        15        16        48     9        0.000000        0.646621         1    ;  uncertainty k = 0.517783
        11        15        16        48     9      180.000000       -1.099688         2    ;  uncertainty k = 0.743824
        11        15        16        48     9        0.000000       -0.334779         3    ;  uncertainty k = 0.213643
        11        15        16        48     9      180.000000       -0.018734         4    ;  uncertainty k = 0.206092
        12        11        10        39     9        0.000000       -0.670734         1    ;  uncertainty k = 0.233995
        12        11        10        39     9      180.000000       -0.386310         2    ;  uncertainty k = 0.258590
        12        11        10        39     9        0.000000        0.557637         3    ;  uncertainty k = 0.179621
        12        11        10        39     9      180.000000       -0.081826         4    ;  uncertainty k = 0.095492
        12        11        10        40     9        0.000000       -0.670734         1    ;  uncertainty k = 0.233995
        12        11        10        40     9      180.000000       -0.386310         2    ;  uncertainty k = 0.258590
        12        11        10        40     9        0.000000        0.557637         3    ;  uncertainty k = 0.179621
        12        11        10        40     9      180.000000       -0.081826         4    ;  uncertainty k = 0.095492
        12        11        15        14     9        0.000000       -3.717091         1    ;  uncertainty k = 0.646014
        12        11        15        14     9      180.000000        0.952705         2    ;  uncertainty k = 0.984304
        12        11        15        14     9        0.000000        1.178983         3    ;  uncertainty k = 0.499657
        12        11        15        14     9      180.000000       -0.410261         4    ;  uncertainty k = 0.338854
        12        11        15        16     9        0.000000       -3.847151         1    ;  uncertainty k = 0.842082
        12        11        15        16     9      180.000000        0.994504         2    ;  uncertainty k = 1.017625
        12        11        15        16     9        0.000000        1.189094         3    ;  uncertainty k = 0.581588
        12        11        15        16     9      180.000000       -0.416044         4    ;  uncertainty k = 0.334399
        12        11        15        46     9        0.000000       -1.291634         1    ;  uncertainty k = 0.560343
        12        11        15        46     9      180.000000        0.594321         2    ;  uncertainty k = 0.368266
        12        11        15        46     9        0.000000        1.030260         3    ;  uncertainty k = 0.246250
        12        11        15        46     9      180.000000        0.081405         4    ;  uncertainty k = 0.059901
        12        13        14        15     9        0.000000       -0.577894         1    ;  uncertainty k = 0.965264
        12        13        14        15     9      180.000000        0.209542         2    ;  uncertainty k = 0.707883
        12        13        14        15     9        0.000000        0.796577         3    ;  uncertainty k = 0.216244
        12        13        14        15     9      180.000000        0.149599         4    ;  uncertainty k = 0.256658
        12        13        14        44     9        0.000000       -1.853142         1    ;  uncertainty k = 0.582033
        12        13        14        44     9      180.000000        1.033698         2    ;  uncertainty k = 0.450442
        12        13        14        44     9        0.000000        1.252345         3    ;  uncertainty k = 0.140560
        12        13        14        44     9      180.000000        0.292848         4    ;  uncertainty k = 0.121326
        12        13        14        45     9        0.000000       -1.853142         1    ;  uncertainty k = 0.582033
        12        13        14        45     9      180.000000        1.033698         2    ;  uncertainty k = 0.450442
        12        13        14        45     9        0.000000        1.252345         3    ;  uncertainty k = 0.140560
        12        13        14        45     9      180.000000        0.292848         4    ;  uncertainty k = 0.121326
        12        13        17        18     9        0.000000        5.923375         1    ;  uncertainty k = 0.421757
        12        13        17        18     9      180.000000       16.834158         2    ;  uncertainty k = 0.205674
        12        13        17        18     9        0.000000        0.225046         3    ;  uncertainty k = 0.139143
        12        13        17        18     9      180.000000       -1.068822         4    ;  uncertainty k = 0.128869
        12        13        17        19     9        0.000000        3.560478         1    ;  uncertainty k = 1.313650
        12        13        17        19     9      180.000000        8.350324         2    ;  uncertainty k = 0.324903
        12        13        17        19     9        0.000000        1.748522         3    ;  uncertainty k = 0.410307
        12        13        17        19     9      180.000000        0.017129         4    ;  uncertainty k = 0.197832
        13        12        11        15     9        0.000000       -0.756383         1    ;  uncertainty k = 0.691039
        13        12        11        15     9      180.000000        5.856438         2    ;  uncertainty k = 0.964489
        13        12        11        15     9        0.000000        0.445306         3    ;  uncertainty k = 0.293243
        13        12        11        15     9      180.000000       -1.144824         4    ;  uncertainty k = 0.220768
        13        12        11        41     9        0.000000        0.134769         1    ;  uncertainty k = 0.685952
        13        12        11        41     9      180.000000        0.831761         2    ;  uncertainty k = 0.416184
        13        12        11        41     9        0.000000        1.099682         3    ;  uncertainty k = 0.160463
        13        12        11        41     9      180.000000       -0.068376         4    ;  uncertainty k = 0.100460
        13        14        15        16     9        0.000000       -2.553641         1    ;  uncertainty k = 1.026052
        13        14        15        16     9      180.000000       -0.018662         2    ;  uncertainty k = 0.745823
        13        14        15        16     9        0.000000        1.607209         3    ;  uncertainty k = 0.236202
        13        14        15        16     9      180.000000       -0.188588         4    ;  uncertainty k = 0.120204
        13        14        15        46     9        0.000000        0.134769         1    ;  uncertainty k = 0.685952
        13        14        15        46     9      180.000000        0.831760         2    ;  uncertainty k = 0.416184
        13        14        15        46     9        0.000000        1.099681         3    ;  uncertainty k = 0.160462
        13        14        15        46     9      180.000000       -0.068376         4    ;  uncertainty k = 0.100460
        13        17        19        20     9        0.000000        2.647901         1    ;  uncertainty k = 1.116541
        13        17        19        20     9      180.000000        5.109758         2    ;  uncertainty k = 0.386180
        13        17        19        20     9        0.000000        0.328399         3    ;  uncertainty k = 0.189530
        13        17        19        20     9      180.000000        0.331930         4    ;  uncertainty k = 0.116085
        13        17        19        26     9        0.000000        2.807596         1    ;  uncertainty k = 1.016329
        13        17        19        26     9      180.000000        5.574438         2    ;  uncertainty k = 0.309161
        13        17        19        26     9        0.000000       -0.082288         3    ;  uncertainty k = 0.083238
        13        17        19        26     9      180.000000        0.464048         4    ;  uncertainty k = 0.134732
        14        13        12        42     9        0.000000       -1.853141         1    ;  uncertainty k = 0.582034
        14        13        12        42     9      180.000000        1.033695         2    ;  uncertainty k = 0.450442
        14        13        12        42     9        0.000000        1.252346         3    ;  uncertainty k = 0.140560
        14        13        12        42     9      180.000000        0.292848         4    ;  uncertainty k = 0.121326
        14        13        12        43     9        0.000000       -1.853141         1    ;  uncertainty k = 0.582034
        14        13        12        43     9      180.000000        1.033695         2    ;  uncertainty k = 0.450442
        14        13        12        43     9        0.000000        1.252346         3    ;  uncertainty k = 0.140560
        14        13        12        43     9      180.000000        0.292848         4    ;  uncertainty k = 0.121326
        14        13        17        18     9        0.000000        5.923375         1    ;  uncertainty k = 0.421759
        14        13        17        18     9      180.000000       16.834158         2    ;  uncertainty k = 0.205675
        14        13        17        18     9        0.000000        0.225047         3    ;  uncertainty k = 0.139143
        14        13        17        18     9      180.000000       -1.068822         4    ;  uncertainty k = 0.128869
        14        13        17        19     9        0.000000        3.560478         1    ;  uncertainty k = 1.313650
        14        13        17        19     9      180.000000        8.350324         2    ;  uncertainty k = 0.324904
        14        13        17        19     9        0.000000        1.748521         3    ;  uncertainty k = 0.410307
        14        13        17        19     9      180.000000        0.017129         4    ;  uncertainty k = 0.197830
        14        15        11        41     9        0.000000       -1.291633         1    ;  uncertainty k = 0.560343
        14        15        11        41     9      180.000000        0.594321         2    ;  uncertainty k = 0.368268
        14        15        11        41     9        0.000000        1.030260         3    ;  uncertainty k = 0.246250
        14        15        11        41     9      180.000000        0.081405         4    ;  uncertainty k = 0.059900
        14        15        16        47     9        0.000000       -0.670733         1    ;  uncertainty k = 0.233996
        14        15        16        47     9      180.000000       -0.386309         2    ;  uncertainty k = 0.258591
        14        15        16        47     9        0.000000        0.557638         3    ;  uncertainty k = 0.179621
        14        15        16        47     9      180.000000       -0.081826         4    ;  uncertainty k = 0.095492
        14        15        16        48     9        0.000000       -0.670733         1    ;  uncertainty k = 0.233996
        14        15        16        48     9      180.000000       -0.386309         2    ;  uncertainty k = 0.258591
        14        15        16        48     9        0.000000        0.557638         3    ;  uncertainty k = 0.179621
        14        15        16        48     9      180.000000       -0.081826         4    ;  uncertainty k = 0.095492
        15        11        10        39     9        0.000000        0.646621         1    ;  uncertainty k = 0.517781
        15        11        10        39     9      180.000000       -1.099689         2    ;  uncertainty k = 0.743823
        15        11        10        39     9        0.000000       -0.334778         3    ;  uncertainty k = 0.213644
        15        11        10        39     9      180.000000       -0.018734         4    ;  uncertainty k = 0.206091
        15        11        10        40     9        0.000000        0.646621         1    ;  uncertainty k = 0.517781
        15        11        10        40     9      180.000000       -1.099689         2    ;  uncertainty k = 0.743823
        15        11        10        40     9        0.000000       -0.334778         3    ;  uncertainty k = 0.213644
        15        11        10        40     9      180.000000       -0.018734         4    ;  uncertainty k = 0.206091
        15        11        12        42     9        0.000000        0.480411         1    ;  uncertainty k = 0.492791
        15        11        12        42     9      180.000000       -1.104495         2    ;  uncertainty k = 0.672328
        15        11        12        42     9        0.000000       -0.270073         3    ;  uncertainty k = 0.170671
        15        11        12        42     9      180.000000       -0.013161         4    ;  uncertainty k = 0.174221
        15        11        12        43     9        0.000000        0.480411         1    ;  uncertainty k = 0.492791
        15        11        12        43     9      180.000000       -1.104495         2    ;  uncertainty k = 0.672328
        15        11        12        43     9        0.000000       -0.270073         3    ;  uncertainty k = 0.170671
        15        11        12        43     9      180.000000       -0.013161         4    ;  uncertainty k = 0.174221
        15        14        13        17     9        0.000000        0.004162         1    ;  uncertainty k = 0.752764
        15        14        13        17     9      180.000000       -0.522539         2    ;  uncertainty k = 0.367030
        15        14        13        17     9        0.000000        0.220162         3    ;  uncertainty k = 0.308628
        15        14        13        17     9      180.000000        0.750104         4    ;  uncertainty k = 0.144488
        16         9        10        39     9        0.000000       -2.106814         1    ;  uncertainty k = 0.722683
        16         9        10        39     9      180.000000        1.271154         2    ;  uncertainty k = 0.391419
        16         9        10        39     9        0.000000        1.144989         3    ;  uncertainty k = 0.081016
        16         9        10        39     9      180.000000        0.249969         4    ;  uncertainty k = 0.124009
        16         9        10        40     9        0.000000       -2.106814         1    ;  uncertainty k = 0.722683
        16         9        10        40     9      180.000000        1.271154         2    ;  uncertainty k = 0.391419
        16         9        10        40     9        0.000000        1.144989         3    ;  uncertainty k = 0.081016
        16         9        10        40     9      180.000000        0.249969         4    ;  uncertainty k = 0.124009
        16        15        11        41     9        0.000000       -1.223110         1    ;  uncertainty k = 0.611378
        16        15        11        41     9      180.000000        0.489635         2    ;  uncertainty k = 0.414979
        16        15        11        41     9        0.000000        0.997353         3    ;  uncertainty k = 0.241669
        16        15        11        41     9      180.000000        0.066778         4    ;  uncertainty k = 0.087125
        16        15        14        44     9        0.000000       -0.498818         1    ;  uncertainty k = 0.107248
        16        15        14        44     9      180.000000       -0.409705         2    ;  uncertainty k = 0.197166
        16        15        14        44     9        0.000000        0.564544         3    ;  uncertainty k = 0.186998
        16        15        14        44     9      180.000000       -0.072177         4    ;  uncertainty k = 0.062323
        16        15        14        45     9        0.000000       -0.498818         1    ;  uncertainty k = 0.107248
        16        15        14        45     9      180.000000       -0.409705         2    ;  uncertainty k = 0.197166
        16        15        14        45     9        0.000000        0.564544         3    ;  uncertainty k = 0.186998
        16        15        14        45     9      180.000000       -0.072177         4    ;  uncertainty k = 0.062323
        17        13        12        42     9        0.000000        1.361806         1    ;  uncertainty k = 0.721816
        17        13        12        42     9      180.000000        0.134910         2    ;  uncertainty k = 0.112197
        17        13        12        42     9        0.000000        0.029287         3    ;  uncertainty k = 0.106616
        17        13        12        42     9      180.000000        0.264580         4    ;  uncertainty k = 0.057528
        17        13        12        43     9        0.000000        1.361806         1    ;  uncertainty k = 0.721816
        17        13        12        43     9      180.000000        0.134910         2    ;  uncertainty k = 0.112197
        17        13        12        43     9        0.000000        0.029287         3    ;  uncertainty k = 0.106616
        17        13        12        43     9      180.000000        0.264580         4    ;  uncertainty k = 0.057528
        17        13        14        44     9        0.000000        1.361805         1    ;  uncertainty k = 0.721815
        17        13        14        44     9      180.000000        0.134911         2    ;  uncertainty k = 0.112196
        17        13        14        44     9        0.000000        0.029287         3    ;  uncertainty k = 0.106616
        17        13        14        44     9      180.000000        0.264580         4    ;  uncertainty k = 0.057528
        17        13        14        45     9        0.000000        1.361805         1    ;  uncertainty k = 0.721815
        17        13        14        45     9      180.000000        0.134911         2    ;  uncertainty k = 0.112196
        17        13        14        45     9        0.000000        0.029287         3    ;  uncertainty k = 0.106616
        17        13        14        45     9      180.000000        0.264580         4    ;  uncertainty k = 0.057528
        17        19        20        21     9        0.000000        0.237717         1    ;  uncertainty k = 0.395309
        17        19        20        21     9      180.000000        9.199787         2    ;  uncertainty k = 0.871705
        17        19        20        21     9        0.000000        1.359497         3    ;  uncertainty k = 0.256234
        17        19        20        21     9      180.000000        2.014226         4    ;  uncertainty k = 0.384699
        17        19        20        49     9        0.000000        0.169275         1    ;  uncertainty k = 0.463988
        17        19        20        49     9      180.000000        8.257066         2    ;  uncertainty k = 0.522625
        17        19        20        49     9        0.000000        0.893821         3    ;  uncertainty k = 0.317004
        17        19        20        49     9      180.000000        1.367395         4    ;  uncertainty k = 0.250806
        17        19        26        25     9        0.000000        0.149683         1    ;  uncertainty k = 0.357432
        17        19        26        25     9      180.000000        6.673955         2    ;  uncertainty k = 0.346375
        17        19        26        25     9        0.000000        1.348914         3    ;  uncertainty k = 0.236768
        17        19        26        25     9      180.000000        1.730707         4    ;  uncertainty k = 0.178192
        17        19        26        27     9        0.000000       -0.211897         1    ;  uncertainty k = 1.034088
        17        19        26        27     9      180.000000        9.901853         2    ;  uncertainty k = 0.566961
        17        19        26        27     9        0.000000        1.363418         3    ;  uncertainty k = 0.437457
        17        19        26        27     9      180.000000        1.234268         4    ;  uncertainty k = 0.380654
        18        17        19        20     9        0.000000       -2.265453         1    ;  uncertainty k = 0.697623
        18        17        19        20     9      180.000000        4.382568         2    ;  uncertainty k = 0.318758
        18        17        19        20     9        0.000000        0.499531         3    ;  uncertainty k = 0.124677
        18        17        19        20     9      180.000000        0.422719         4    ;  uncertainty k = 0.118994
        18        17        19        26     9        0.000000       -4.893061         1    ;  uncertainty k = 1.309490
        18        17        19        26     9      180.000000        5.496385         2    ;  uncertainty k = 0.544270
        18        17        19        26     9        0.000000        0.459741         3    ;  uncertainty k = 0.384951
        18        17        19        26     9      180.000000        0.527334         4    ;  uncertainty k = 0.248446
        19        20        21        22     9        0.000000       -0.012079         1    ;  uncertainty k = 0.293507
        19        20        21        22     9      180.000000       11.748931         2    ;  uncertainty k = 0.225735
        19        20        21        22     9        0.000000        1.449395         3    ;  uncertainty k = 0.211212
        19        20        21        22     9      180.000000        1.633842         4    ;  uncertainty k = 0.137383
        19        20        21        23     9        0.000000       -0.109696         1    ;  uncertainty k = 0.330204
        19        20        21        23     9      180.000000        8.484915         2    ;  uncertainty k = 0.747115
        19        20        21        23     9        0.000000        0.207057         3    ;  uncertainty k = 0.220777
        19        20        21        23     9      180.000000        1.300014         4    ;  uncertainty k = 0.377514
        19        26        25        23     9        0.000000       -0.074403         1    ;  uncertainty k = 0.288843
        19        26        25        23     9      180.000000        8.751944         2    ;  uncertainty k = 0.645009
        19        26        25        23     9        0.000000        0.378508         3    ;  uncertainty k = 0.249251
        19        26        25        23     9      180.000000        1.348386         4    ;  uncertainty k = 0.369590
        19        26        25        50     9        0.000000        0.012714         1    ;  uncertainty k = 0.226102
        19        26        25        50     9      180.000000        6.230163         2    ;  uncertainty k = 0.333290
        19        26        25        50     9        0.000000        1.170846         3    ;  uncertainty k = 0.173250
        19        26        25        50     9      180.000000        1.606977         4    ;  uncertainty k = 0.248820
        19        26        27        28     9        0.000000       -0.633052         1    ;  uncertainty k = 0.971167
        19        26        27        28     9      180.000000        3.968388         2    ;  uncertainty k = 0.253302
        19        26        27        28     9        0.000000        0.683807         3    ;  uncertainty k = 0.269972
        19        26        27        28     9      180.000000       -0.082874         4    ;  uncertainty k = 0.155099
        19        26        27        31     9        0.000000       -0.633052         1    ;  uncertainty k = 0.971167
        19        26        27        31     9      180.000000        3.968388         2    ;  uncertainty k = 0.253302
        19        26        27        31     9        0.000000        0.683807         3    ;  uncertainty k = 0.269972
        19        26        27        31     9      180.000000       -0.082874         4    ;  uncertainty k = 0.155099
        20        19        26        25     9        0.000000       -0.887147         1    ;  uncertainty k = 0.948271
        20        19        26        25     9      180.000000        6.947619         2    ;  uncertainty k = 0.866310
        20        19        26        25     9        0.000000        0.141426         3    ;  uncertainty k = 0.458302
        20        19        26        25     9      180.000000        1.222667         4    ;  uncertainty k = 0.230773
        20        19        26        27     9        0.000000        0.494965         1    ;  uncertainty k = 0.409056
        20        19        26        27     9      180.000000        9.839178         2    ;  uncertainty k = 0.362268
        20        19        26        27     9        0.000000        1.180931         3    ;  uncertainty k = 0.187118
        20        19        26        27     9      180.000000        1.509528         4    ;  uncertainty k = 0.215066
        20        21        23        24     9        0.000000        0.151665         1    ;  uncertainty k = 0.231806
        20        21        23        24     9      180.000000        7.980270         2    ;  uncertainty k = 0.624619
        20        21        23        24     9        0.000000        1.403508         3    ;  uncertainty k = 0.189467
        20        21        23        24     9      180.000000        1.632385         4    ;  uncertainty k = 0.138420
        20        21        23        25     9        0.000000       -0.268880         1    ;  uncertainty k = 0.629664
        20        21        23        25     9      180.000000        5.751386         2    ;  uncertainty k = 1.160634
        20        21        23        25     9        0.000000        0.214512         3    ;  uncertainty k = 0.281939
        20        21        23        25     9      180.000000        1.150344         4    ;  uncertainty k = 0.359838
        21        20        19        26     9        0.000000       -0.233716         1    ;  uncertainty k = 0.170971
        21        20        19        26     9      180.000000       10.125553         2    ;  uncertainty k = 0.498727
        21        20        19        26     9        0.000000        0.326029         3    ;  uncertainty k = 0.214985
        21        20        19        26     9      180.000000        1.385303         4    ;  uncertainty k = 0.389629
        21        23        25        26     9        0.000000       -0.065403         1    ;  uncertainty k = 0.316803
        21        23        25        26     9      180.000000        8.431499         2    ;  uncertainty k = 0.523169
        21        23        25        26     9        0.000000        0.320996         3    ;  uncertainty k = 0.469923
        21        23        25        26     9      180.000000        1.366263         4    ;  uncertainty k = 0.327338
        21        23        25        50     9        0.000000       -0.048266         1    ;  uncertainty k = 0.178007
        21        23        25        50     9      180.000000        5.950920         2    ;  uncertainty k = 0.662081
        21        23        25        50     9        0.000000        1.201512         3    ;  uncertainty k = 0.291236
        21        23        25        50     9      180.000000        1.612913         4    ;  uncertainty k = 0.155876
        22        21        20        49     9        0.000000       -0.322407         1    ;  uncertainty k = 0.302545
        22        21        20        49     9      180.000000        9.268208         2    ;  uncertainty k = 0.619805
        22        21        20        49     9        0.000000        0.840091         3    ;  uncertainty k = 0.130983
        22        21        20        49     9      180.000000        1.070150         4    ;  uncertainty k = 0.174960
        22        21        23        24     9        0.000000       -0.207408         1    ;  uncertainty k = 0.266173
        22        21        23        24     9      180.000000       11.603301         2    ;  uncertainty k = 0.364785
        22        21        23        24     9        0.000000        1.473480         3    ;  uncertainty k = 0.468974
        22        21        23        24     9      180.000000        1.244789         4    ;  uncertainty k = 0.297397
        22        21        23        25     9        0.000000        0.090484         1    ;  uncertainty k = 0.359905
        22        21        23        25     9      180.000000        7.923257         2    ;  uncertainty k = 0.510436
        22        21        23        25     9        0.000000        1.480213         3    ;  uncertainty k = 0.215854
        22        21        23        25     9      180.000000        1.646114         4    ;  uncertainty k = 0.115501
        23        21        20        49     9        0.000000       -0.100414         1    ;  uncertainty k = 0.214692
        23        21        20        49     9      180.000000        5.781208         2    ;  uncertainty k = 0.702571
        23        21        20        49     9        0.000000        1.164525         3    ;  uncertainty k = 0.337803
        23        21        20        49     9      180.000000        1.566791         4    ;  uncertainty k = 0.144913
        23        25        26        27     9        0.000000        0.358116         1    ;  uncertainty k = 0.380670
        23        25        26        27     9      180.000000       10.665342         2    ;  uncertainty k = 0.166936
        23        25        26        27     9        0.000000        1.102457         3    ;  uncertainty k = 0.338223
        23        25        26        27     9      180.000000        1.673043         4    ;  uncertainty k = 0.143825
        24        23        25        26     9        0.000000        0.061441         1    ;  uncertainty k = 0.131726
        24        23        25        26     9      180.000000       12.370794         2    ;  uncertainty k = 0.276085
        24        23        25        26     9        0.000000        1.426668         3    ;  uncertainty k = 0.227108
        24        23        25        26     9      180.000000        1.492884         4    ;  uncertainty k = 0.184072
        24        23        25        50     9        0.000000       -0.337415         1    ;  uncertainty k = 0.337666
        24        23        25        50     9      180.000000        9.244492         2    ;  uncertainty k = 0.604014
        24        23        25        50     9        0.000000        0.765254         3    ;  uncertainty k = 0.133887
        24        23        25        50     9      180.000000        1.052908         4    ;  uncertainty k = 0.222959
        25        26        27        28     9        0.000000        2.075693         1    ;  uncertainty k = 0.875784
        25        26        27        28     9      180.000000        4.193899         2    ;  uncertainty k = 0.287185
        25        26        27        28     9        0.000000        0.388527         3    ;  uncertainty k = 0.228522
        25        26        27        28     9      180.000000        0.083068         4    ;  uncertainty k = 0.123764
        25        26        27        31     9        0.000000        2.075693         1    ;  uncertainty k = 0.875784
        25        26        27        31     9      180.000000        4.193899         2    ;  uncertainty k = 0.287185
        25        26        27        31     9        0.000000        0.388527         3    ;  uncertainty k = 0.228522
        25        26        27        31     9      180.000000        0.083068         4    ;  uncertainty k = 0.123764
        26        19        20        49     9        0.000000        0.056937         1    ;  uncertainty k = 0.373135
        26        19        20        49     9      180.000000        7.605409         2    ;  uncertainty k = 0.487211
        26        19        20        49     9        0.000000        1.177116         3    ;  uncertainty k = 0.143031
        26        19        20        49     9      180.000000        1.653892         4    ;  uncertainty k = 0.190810
        26        27        28        29     9        0.000000        0.813904         1    ;  uncertainty k = 2.379769
        26        27        28        29     9      180.000000       14.325522         2    ;  uncertainty k = 0.430017
        26        27        28        29     9        0.000000        1.396236         3    ;  uncertainty k = 0.488556
        26        27        28        29     9      180.000000        0.094077         4    ;  uncertainty k = 0.206164
        26        27        31        30     9        0.000000        0.813904         1    ;  uncertainty k = 2.379769
        26        27        31        30     9      180.000000       14.325522         2    ;  uncertainty k = 0.430017
        26        27        31        30     9        0.000000        1.396236         3    ;  uncertainty k = 0.488556
        26        27        31        30     9      180.000000        0.094077         4    ;  uncertainty k = 0.206164
        27        26        25        50     9        0.000000        0.193683         1    ;  uncertainty k = 0.480347
        27        26        25        50     9      180.000000        8.296927         2    ;  uncertainty k = 0.328598
        27        26        25        50     9        0.000000        0.822052         3    ;  uncertainty k = 0.184174
        27        26        25        50     9      180.000000        1.365708         4    ;  uncertainty k = 0.178955
        27        28        29        30     9        0.000000        0.006603         1    ;  uncertainty k = 0.517140
        27        28        29        30     9      180.000000       24.374117         2    ;  uncertainty k = 0.361663
        27        28        29        30     9        0.000000       -9.727340         3    ;  uncertainty k = 1.851481
        27        28        29        30     9      180.000000        2.422846         4    ;  uncertainty k = 0.664593
        27        28        29        51     9        0.000000        0.254751         1    ;  uncertainty k = 0.728272
        27        28        29        51     9      180.000000       22.064839         2    ;  uncertainty k = 0.487999
        27        28        29        51     9        0.000000        1.442443         3    ;  uncertainty k = 0.415926
        27        28        29        51     9      180.000000        1.213038         4    ;  uncertainty k = 0.607869
        27        31        30        29     9        0.000000        0.006603         1    ;  uncertainty k = 0.517140
        27        31        30        29     9      180.000000       24.374117         2    ;  uncertainty k = 0.361663
        27        31        30        29     9        0.000000       -9.727340         3    ;  uncertainty k = 1.851481
        27        31        30        29     9      180.000000        2.422846         4    ;  uncertainty k = 0.664593
        27        31        30        52     9        0.000000        0.254751         1    ;  uncertainty k = 0.728272
        27        31        30        52     9      180.000000       22.064839         2    ;  uncertainty k = 0.487999
        27        31        30        52     9        0.000000        1.442443         3    ;  uncertainty k = 0.415926
        27        31        30        52     9      180.000000        1.213038         4    ;  uncertainty k = 0.607869
        28        27        31        30     9        0.000000       -0.802464         1    ;  uncertainty k = 0.759882
        28        27        31        30     9      180.000000       22.047431         2    ;  uncertainty k = 0.263277
        28        27        31        30     9        0.000000       -8.290796         3    ;  uncertainty k = 1.319798
        28        27        31        30     9      180.000000        1.301457         4    ;  uncertainty k = 0.598466
        28        29        30        31     9        0.000000       -0.480158         1    ;  uncertainty k = 0.926462
        28        29        30        31     9      180.000000       16.735216         2    ;  uncertainty k = 1.309662
        28        29        30        31     9        0.000000      -12.155219         3    ;  uncertainty k = 1.939945
        28        29        30        31     9      180.000000        1.991293         4    ;  uncertainty k = 0.750423
        28        29        30        52     9        0.000000        0.154897         1    ;  uncertainty k = 0.970262
        28        29        30        52     9      180.000000       11.842300         2    ;  uncertainty k = 0.614370
        28        29        30        52     9        0.000000        0.922189         3    ;  uncertainty k = 0.757887
        28        29        30        52     9      180.000000        0.630945         4    ;  uncertainty k = 0.172002
        29        28        27        31     9        0.000000       -0.802464         1    ;  uncertainty k = 0.759882
        29        28        27        31     9      180.000000       22.047431         2    ;  uncertainty k = 0.263277
        29        28        27        31     9        0.000000       -8.290796         3    ;  uncertainty k = 1.319798
        29        28        27        31     9      180.000000        1.301457         4    ;  uncertainty k = 0.598466
        31        30        29        51     9        0.000000        0.154897         1    ;  uncertainty k = 0.970262
        31        30        29        51     9      180.000000       11.842300         2    ;  uncertainty k = 0.614370
        31        30        29        51     9        0.000000        0.922189         3    ;  uncertainty k = 0.757887
        31        30        29        51     9      180.000000        0.630945         4    ;  uncertainty k = 0.172002
        39        10        11        41     9        0.000000        0.359872         1    ;  uncertainty k = 0.316166
        39        10        11        41     9      180.000000       -0.360044         2    ;  uncertainty k = 0.197279
        39        10        11        41     9        0.000000        0.364903         3    ;  uncertainty k = 0.128583
        39        10        11        41     9      180.000000       -0.036803         4    ;  uncertainty k = 0.081429
        40        10        11        41     9        0.000000        0.359872         1    ;  uncertainty k = 0.316166
        40        10        11        41     9      180.000000       -0.360044         2    ;  uncertainty k = 0.197279
        40        10        11        41     9        0.000000        0.364903         3    ;  uncertainty k = 0.128583
        40        10        11        41     9      180.000000       -0.036803         4    ;  uncertainty k = 0.081429
        41        11        12        42     9        0.000000        0.423998         1    ;  uncertainty k = 0.297943
        41        11        12        42     9      180.000000       -0.322771         2    ;  uncertainty k = 0.253711
        41        11        12        42     9        0.000000        0.343158         3    ;  uncertainty k = 0.128710
        41        11        12        42     9      180.000000       -0.041305         4    ;  uncertainty k = 0.061986
        41        11        12        43     9        0.000000        0.423998         1    ;  uncertainty k = 0.297943
        41        11        12        43     9      180.000000       -0.322771         2    ;  uncertainty k = 0.253711
        41        11        12        43     9        0.000000        0.343158         3    ;  uncertainty k = 0.128710
        41        11        12        43     9      180.000000       -0.041305         4    ;  uncertainty k = 0.061986
        41        11        15        46     9        0.000000        3.534566         1    ;  uncertainty k = 1.183407
        41        11        15        46     9      180.000000       -0.219654         2    ;  uncertainty k = 0.641097
        41        11        15        46     9        0.000000        0.578188         3    ;  uncertainty k = 0.579178
        41        11        15        46     9      180.000000        0.212498         4    ;  uncertainty k = 0.291708
        44        14        15        46     9        0.000000        0.424000         1    ;  uncertainty k = 0.297943
        44        14        15        46     9      180.000000       -0.322771         2    ;  uncertainty k = 0.253710
        44        14        15        46     9        0.000000        0.343158         3    ;  uncertainty k = 0.128710
        44        14        15        46     9      180.000000       -0.041305         4    ;  uncertainty k = 0.061986
        45        14        15        46     9        0.000000        0.424000         1    ;  uncertainty k = 0.297943
        45        14        15        46     9      180.000000       -0.322771         2    ;  uncertainty k = 0.253710
        45        14        15        46     9        0.000000        0.343158         3    ;  uncertainty k = 0.128710
        45        14        15        46     9      180.000000       -0.041305         4    ;  uncertainty k = 0.061986
        46        15        16        47     9        0.000000        0.359873         1    ;  uncertainty k = 0.316165
        46        15        16        47     9      180.000000       -0.360044         2    ;  uncertainty k = 0.197281
        46        15        16        47     9        0.000000        0.364903         3    ;  uncertainty k = 0.128582
        46        15        16        47     9      180.000000       -0.036803         4    ;  uncertainty k = 0.081429
        46        15        16        48     9        0.000000        0.359873         1    ;  uncertainty k = 0.316165
        46        15        16        48     9      180.000000       -0.360044         2    ;  uncertainty k = 0.197281
        46        15        16        48     9        0.000000        0.364903         3    ;  uncertainty k = 0.128582
        46        15        16        48     9      180.000000       -0.036803         4    ;  uncertainty k = 0.081429
        51        29        30        52     9        0.000000       -0.942648         1    ;  uncertainty k = 1.117582
        51        29        30        52     9      180.000000        4.272735         2    ;  uncertainty k = 0.760818
        51        29        30        52     9        0.000000        1.314863         3    ;  uncertainty k = 0.353594
        51        29        30        52     9      180.000000        0.150448         4    ;  uncertainty k = 0.159865

[ dihedrals ] ; impropers
;       ai        aj        ak        al funct           phase               k        pn
         2         1         3         8     4      180.000000       31.911121         2    ;  uncertainty k = 0.074029
         2         3         8         1     4      180.000000       31.911121         2    ;  uncertainty k = 0.074029
         2         8         1         3     4      180.000000       31.911121         2    ;  uncertainty k = 0.074029
         3         2         4        35     4      180.000000        1.149575         2    ;  uncertainty k = 0.472328
         3         4        35         2     4      180.000000        1.149575         2    ;  uncertainty k = 0.472328
         3        35         2         4     4      180.000000        1.149575         2    ;  uncertainty k = 0.472328
         4         3         5         6     4      180.000000       31.911121         2    ;  uncertainty k = 0.074029
         4         5         6         3     4      180.000000       31.911121         2    ;  uncertainty k = 0.074029
         4         6         3         5     4      180.000000       31.911121         2    ;  uncertainty k = 0.074029
         7         6         8         9     4      180.000000       42.641368         2    ;  uncertainty k = 0.061085
         7         8         9         6     4      180.000000       42.641368         2    ;  uncertainty k = 0.061085
         7         9         6         8     4      180.000000       42.641368         2    ;  uncertainty k = 0.061085
         9         7        10        16     4      180.000000        0.056062         2    ;  uncertainty k = 0.081767
         9        10        16         7     4      180.000000        0.056062         2    ;  uncertainty k = 0.081767
         9        16         7        10     4      180.000000        0.056062         2    ;  uncertainty k = 0.081767
        17        13        18        19     4      180.000000       50.614732         2    ;  uncertainty k = 0.067485
        17        18        19        13     4      180.000000       50.614732         2    ;  uncertainty k = 0.067485
        17        19        13        18     4      180.000000       50.614732         2    ;  uncertainty k = 0.067485
        19        17        20        26     4      180.000000       10.820271         2    ;  uncertainty k = 0.186138
        19        20        26        17     4      180.000000       10.820271         2    ;  uncertainty k = 0.186138
        19        26        17        20     4      180.000000       10.820271         2    ;  uncertainty k = 0.186138
        20        19        21        49     4      180.000000        2.863858         2    ;  uncertainty k = 0.191101
        20        21        49        19     4      180.000000        2.863858         2    ;  uncertainty k = 0.191101
        20        49        19        21     4      180.000000        2.863858         2    ;  uncertainty k = 0.191101
        21        20        22        23     4      180.000000       13.041373         2    ;  uncertainty k = 0.077122
        21        22        23        20     4      180.000000       13.041373         2    ;  uncertainty k = 0.077122
        21        23        20        22     4      180.000000       13.041373         2    ;  uncertainty k = 0.077122
        23        21        24        25     4      180.000000       13.364052         2    ;  uncertainty k = 0.114901
        23        24        25        21     4      180.000000       13.364052         2    ;  uncertainty k = 0.114901
        23        25        21        24     4      180.000000       13.364052         2    ;  uncertainty k = 0.114901
        25        23        26        50     4      180.000000        2.345975         2    ;  uncertainty k = 0.223043
        25        26        50        23     4      180.000000        2.345975         2    ;  uncertainty k = 0.223043
        25        50        23        26     4      180.000000        2.345975         2    ;  uncertainty k = 0.223043
        26        19        25        27     4      180.000000       12.078821         2    ;  uncertainty k = 0.143311
        26        25        27        19     4      180.000000       12.078821         2    ;  uncertainty k = 0.143311
        26        27        19        25     4      180.000000       12.078821         2    ;  uncertainty k = 0.143311
        29        28        30        51     4      180.000000        0.414726         2    ;  uncertainty k = 0.408832
        29        30        51        28     4      180.000000        0.414726         2    ;  uncertainty k = 0.408832
        29        51        28        30     4      180.000000        0.414726         2    ;  uncertainty k = 0.408832
        30        29        31        52     4      180.000000        0.414726         2    ;  uncertainty k = 0.408832
        30        31        52        29     4      180.000000        0.414726         2    ;  uncertainty k = 0.408832
        30        52        29        31     4      180.000000        0.414726         2    ;  uncertainty k = 0.408832

[ pairs ]
;       ai        aj funct
         1         4     1
         1         7     1
         1        35     1
         2         5     1
         2         6     1
         2         9     1
         3         7     1
         3        32     1
         3        33     1
         3        34     1
         3        36     1
         3        37     1
         3        38     1
         4         8     1
         4         9     1
         5         7     1
         5        35     1
         6        10     1
         6        16     1
         6        35     1
         6        36     1
         6        37     1
         6        38     1
         7        11     1
         7        15     1
         7        39     1
         7        40     1
         7        47     1
         7        48     1
         8        10     1
         8        16     1
         8        32     1
         8        33     1
         8        34     1
         8        35     1
         9        12     1
         9        14     1
         9        41     1
         9        46     1
        10        13     1
        10        14     1
        10        42     1
        10        43     1
        10        46     1
        10        47     1
        10        48     1
        11        17     1
        11        44     1
        11        45     1
        11        47     1
        11        48     1
        12        16     1
        12        18     1
        12        19     1
        12        39     1
        12        40     1
        12        44     1
        12        45     1
        12        46     1
        13        16     1
        13        20     1
        13        26     1
        13        41     1
        13        46     1
        14        18     1
        14        19     1
        14        41     1
        14        42     1
        14        43     1
        14        47     1
        14        48     1
        15        17     1
        15        39     1
        15        40     1
        15        42     1
        15        43     1
        16        39     1
        16        40     1
        16        41     1
        16        44     1
        16        45     1
        17        21     1
        17        25     1
        17        27     1
        17        42     1
        17        43     1
        17        44     1
        17        45     1
        17        49     1
        18        20     1
        18        26     1
        19        22     1
        19        23     1
        19        28     1
        19        31     1
        19        50     1
        20        24     1
        20        25     1
        20        27     1
        21        26     1
        21        50     1
        22        24     1
        22        25     1
        22        49     1
        23        27     1
        23        49     1
        24        26     1
        24        50     1
        25        28     1
        25        31     1
        26        29     1
        26        30     1
        26        49     1
        27        50     1
        27        51     1
        27        52     1
        28        52     1
        31        51     1
        39        41     1
        40        41     1
        41        42     1
        41        43     1
        41        46     1
        44        46     1
        45        46     1
        46        47     1
        46        48     1
        51        52     1
