; ITP file created by ByteFF-joint-25, 2025-07-14 11:28:37.407920

[ atomtypes ]
;name           bonded.type        at.num        mass        charge   ptype           sigma         epsilon
 c0bf                                   6      0.0000       0.00000       A     3.39777e-01     4.51036e-01    ;  uncertainty sigma = 0.000005, epsilon = 0.000750
 o1bf                                   8      0.0000       0.00000       A     3.15689e-01     3.03467e-01    ;  uncertainty sigma = 0.000033, epsilon = 0.001497
 c2bf                                   6      0.0000       0.00000       A     3.31549e-01     4.13554e-01    ;  uncertainty sigma = 0.000023, epsilon = 0.000837
 c3bf                                   6      0.0000       0.00000       A     3.31534e-01     4.13154e-01    ;  uncertainty sigma = 0.000009, epsilon = 0.001615
 c4bf                                   6      0.0000       0.00000       A     3.31533e-01     4.13496e-01    ;  uncertainty sigma = 0.000009, epsilon = 0.000359
 n5bf                                   7      0.0000       0.00000       A     3.38419e-01     3.93586e-01    ;  uncertainty sigma = 0.000018, epsilon = 0.000527
 c6bf                                   6      0.0000       0.00000       A     3.31533e-01     4.13279e-01    ;  uncertainty sigma = 0.000016, epsilon = 0.000731
 n7bf                                   7      0.0000       0.00000       A     3.38417e-01     3.93293e-01    ;  uncertainty sigma = 0.000012, epsilon = 0.001349
 n8bf                                   7      0.0000       0.00000       A     3.18952e-01     8.99798e-01    ;  uncertainty sigma = 0.000050, epsilon = 0.003979
 c9bf                                   6      0.0000       0.00000       A     3.39774e-01     4.50953e-01    ;  uncertainty sigma = 0.000012, epsilon = 0.001229
 c10bf                                  6      0.0000       0.00000       A     3.39776e-01     4.51373e-01    ;  uncertainty sigma = 0.000009, epsilon = 0.000969
 c11bf                                  6      0.0000       0.00000       A     3.39784e-01     4.51219e-01    ;  uncertainty sigma = 0.000006, epsilon = 0.000696
 n12bf                                  7      0.0000       0.00000       A     3.18086e-01     6.84039e-01    ;  uncertainty sigma = 0.000014, epsilon = 0.001467
 c13bf                                  6      0.0000       0.00000       A     3.39784e-01     4.51219e-01    ;  uncertainty sigma = 0.000006, epsilon = 0.000696
 c14bf                                  6      0.0000       0.00000       A     3.39776e-01     4.51373e-01    ;  uncertainty sigma = 0.000009, epsilon = 0.000969
 c15bf                                  6      0.0000       0.00000       A     3.39774e-01     4.50953e-01    ;  uncertainty sigma = 0.000012, epsilon = 0.001229
 c16bf                                  6      0.0000       0.00000       A     3.31486e-01     4.13134e-01    ;  uncertainty sigma = 0.000026, epsilon = 0.002146
 o17bf                                  8      0.0000       0.00000       A     3.04851e-01     6.12019e-01    ;  uncertainty sigma = 0.000026, epsilon = 0.001020
 c18bf                                  6      0.0000       0.00000       A     3.31488e-01     4.12415e-01    ;  uncertainty sigma = 0.000034, epsilon = 0.001171
 c19bf                                  6      0.0000       0.00000       A     3.31513e-01     4.12834e-01    ;  uncertainty sigma = 0.000016, epsilon = 0.001291
 f20bf                                  9      0.0000       0.00000       A     3.03451e-01     3.47872e-01    ;  uncertainty sigma = 0.000029, epsilon = 0.000470
 c21bf                                  6      0.0000       0.00000       A     3.31522e-01     4.13335e-01    ;  uncertainty sigma = 0.000005, epsilon = 0.000662
 c22bf                                  6      0.0000       0.00000       A     3.31521e-01     4.13421e-01    ;  uncertainty sigma = 0.000006, epsilon = 0.000781
 c23bf                                  6      0.0000       0.00000       A     3.31510e-01     4.13240e-01    ;  uncertainty sigma = 0.000014, epsilon = 0.000923
 c24bf                                  6      0.0000       0.00000       A     3.31553e-01     4.13601e-01    ;  uncertainty sigma = 0.000013, epsilon = 0.001582
 n25bf                                  7      0.0000       0.00000       A     3.20569e-01     8.54049e-01    ;  uncertainty sigma = 0.000030, epsilon = 0.002792
 n26bf                                  7      0.0000       0.00000       A     3.38413e-01     3.93694e-01    ;  uncertainty sigma = 0.000010, epsilon = 0.000693
 c27bf                                  6      0.0000       0.00000       A     3.31537e-01     4.13587e-01    ;  uncertainty sigma = 0.000007, epsilon = 0.000835
 c28bf                                  6      0.0000       0.00000       A     3.31537e-01     4.13587e-01    ;  uncertainty sigma = 0.000007, epsilon = 0.000835
 n29bf                                  7      0.0000       0.00000       A     3.38413e-01     3.93694e-01    ;  uncertainty sigma = 0.000010, epsilon = 0.000693
 h30bf                                  1      0.0000       0.00000       A     2.42204e-01     8.66227e-02    ;  uncertainty sigma = 0.000019, epsilon = 0.000473
 h31bf                                  1      0.0000       0.00000       A     2.42204e-01     8.66227e-02    ;  uncertainty sigma = 0.000019, epsilon = 0.000473
 h32bf                                  1      0.0000       0.00000       A     2.42204e-01     8.66227e-02    ;  uncertainty sigma = 0.000019, epsilon = 0.000473
 h33bf                                  1      0.0000       0.00000       A     2.62551e-01     6.72943e-02    ;  uncertainty sigma = 0.000018, epsilon = 0.000850
 h34bf                                  1      0.0000       0.00000       A     2.53649e-01     6.71559e-02    ;  uncertainty sigma = 0.000012, epsilon = 0.000546
 h35bf                                  1      0.0000       0.00000       A     2.42199e-01     8.66324e-02    ;  uncertainty sigma = 0.000024, epsilon = 0.001250
 h36bf                                  1      0.0000       0.00000       A     2.42199e-01     8.66324e-02    ;  uncertainty sigma = 0.000024, epsilon = 0.001250
 h37bf                                  1      0.0000       0.00000       A     2.59994e-01     8.68892e-02    ;  uncertainty sigma = 0.000026, epsilon = 0.000553
 h38bf                                  1      0.0000       0.00000       A     2.42194e-01     8.66543e-02    ;  uncertainty sigma = 0.000021, epsilon = 0.000863
 h39bf                                  1      0.0000       0.00000       A     2.42194e-01     8.66543e-02    ;  uncertainty sigma = 0.000021, epsilon = 0.000863
 h40bf                                  1      0.0000       0.00000       A     2.42194e-01     8.66545e-02    ;  uncertainty sigma = 0.000021, epsilon = 0.000863
 h41bf                                  1      0.0000       0.00000       A     2.42194e-01     8.66545e-02    ;  uncertainty sigma = 0.000021, epsilon = 0.000863
 h42bf                                  1      0.0000       0.00000       A     2.59994e-01     8.68892e-02    ;  uncertainty sigma = 0.000026, epsilon = 0.000553
 h43bf                                  1      0.0000       0.00000       A     2.42199e-01     8.66324e-02    ;  uncertainty sigma = 0.000024, epsilon = 0.001250
 h44bf                                  1      0.0000       0.00000       A     2.42199e-01     8.66324e-02    ;  uncertainty sigma = 0.000024, epsilon = 0.001250
 h45bf                                  1      0.0000       0.00000       A     2.62565e-01     6.70682e-02    ;  uncertainty sigma = 0.000010, epsilon = 0.000430
 h46bf                                  1      0.0000       0.00000       A     2.62565e-01     6.69658e-02    ;  uncertainty sigma = 0.000011, epsilon = 0.000532
 h47bf                                  1      0.0000       0.00000       A     2.62555e-01     6.71502e-02    ;  uncertainty sigma = 0.000013, epsilon = 0.000465
 h48bf                                  1      0.0000       0.00000       A     2.53604e-01     6.70806e-02    ;  uncertainty sigma = 0.000028, epsilon = 0.000600
 h49bf                                  1      0.0000       0.00000       A     2.53604e-01     6.70807e-02    ;  uncertainty sigma = 0.000028, epsilon = 0.000600

[ moleculetype ]
;name             nrexcl
 MOL                   3

[ atoms ]
;       nr            type      resi   res      atom      cgnr      charge          mass ; qtot
         1            c0bf         1   UNL        c0         1     0.13379       12.0110 ; qtot    0.134
         2            o1bf         1   UNL        o1         2    -0.43494       15.9990 ; qtot   -0.301
         3            c2bf         1   UNL        c2         3     0.69885       12.0110 ; qtot    0.398
         4            c3bf         1   UNL        c3         4    -0.43394       12.0110 ; qtot   -0.036
         5            c4bf         1   UNL        c4         5     0.48994       12.0110 ; qtot    0.454
         6            n5bf         1   UNL        n5         6    -0.78236       14.0070 ; qtot   -0.329
         7            c6bf         1   UNL        c6         7     0.93327       12.0110 ; qtot    0.605
         8            n7bf         1   UNL        n7         8    -0.84419       14.0070 ; qtot   -0.240
         9            n8bf         1   UNL        n8         9    -0.78735       14.0070 ; qtot   -1.027
        10            c9bf         1   UNL        c9        10     0.23516       12.0110 ; qtot   -0.792
        11           c10bf         1   UNL       c10        11    -0.09743       12.0110 ; qtot   -0.889
        12           c11bf         1   UNL       c11        12     0.11057       12.0110 ; qtot   -0.779
        13           n12bf         1   UNL       n12        13    -0.47239       14.0070 ; qtot   -1.251
        14           c13bf         1   UNL       c13        14     0.11057       12.0110 ; qtot   -1.140
        15           c14bf         1   UNL       c14        15    -0.09743       12.0110 ; qtot   -1.238
        16           c15bf         1   UNL       c15        16     0.23516       12.0110 ; qtot   -1.003
        17           c16bf         1   UNL       c16        17     0.70764       12.0110 ; qtot   -0.295
        18           o17bf         1   UNL       o17        18    -0.58293       15.9990 ; qtot   -0.878
        19           c18bf         1   UNL       c18        19    -0.15596       12.0110 ; qtot   -1.034
        20           c19bf         1   UNL       c19        20     0.16292       12.0110 ; qtot   -0.871
        21           f20bf         1   UNL       f20        21    -0.13494       18.9980 ; qtot   -1.006
        22           c21bf         1   UNL       c21        22    -0.15817       12.0110 ; qtot   -1.164
        23           c22bf         1   UNL       c22        23    -0.08197       12.0110 ; qtot   -1.246
        24           c23bf         1   UNL       c23        24    -0.13048       12.0110 ; qtot   -1.377
        25           c24bf         1   UNL       c24        25     0.07222       12.0110 ; qtot   -1.304
        26           n25bf         1   UNL       n25        26     0.30201       14.0070 ; qtot   -1.002
        27           n26bf         1   UNL       n26        27    -0.47243       14.0070 ; qtot   -1.475
        28           c27bf         1   UNL       c27        28     0.20275       12.0110 ; qtot   -1.272
        29           c28bf         1   UNL       c28        29     0.20275       12.0110 ; qtot   -1.069
        30           n29bf         1   UNL       n29        30    -0.47243       14.0070 ; qtot   -1.542
        31           h30bf         1   UNL       h30        31     0.04980        1.0080 ; qtot   -1.492
        32           h31bf         1   UNL       h31        32     0.04980        1.0080 ; qtot   -1.442
        33           h32bf         1   UNL       h32        33     0.04980        1.0080 ; qtot   -1.392
        34           h33bf         1   UNL       h33        34     0.16799        1.0080 ; qtot   -1.224
        35           h34bf         1   UNL       h34        35     0.02709        1.0080 ; qtot   -1.197
        36           h35bf         1   UNL       h35        36     0.05891        1.0080 ; qtot   -1.138
        37           h36bf         1   UNL       h36        37     0.05891        1.0080 ; qtot   -1.079
        38           h37bf         1   UNL       h37        38     0.07237        1.0080 ; qtot   -1.007
        39           h38bf         1   UNL       h38        39     0.05981        1.0080 ; qtot   -0.947
        40           h39bf         1   UNL       h39        40     0.05981        1.0080 ; qtot   -0.887
        41           h40bf         1   UNL       h40        41     0.05981        1.0080 ; qtot   -0.828
        42           h41bf         1   UNL       h41        42     0.05981        1.0080 ; qtot   -0.768
        43           h42bf         1   UNL       h42        43     0.07237        1.0080 ; qtot   -0.695
        44           h43bf         1   UNL       h43        44     0.05891        1.0080 ; qtot   -0.637
        45           h44bf         1   UNL       h44        45     0.05891        1.0080 ; qtot   -0.578
        46           h45bf         1   UNL       h45        46     0.15846        1.0080 ; qtot   -0.419
        47           h46bf         1   UNL       h46        47     0.14574        1.0080 ; qtot   -0.273
        48           h47bf         1   UNL       h47        48     0.16350        1.0080 ; qtot   -0.110
        49           h48bf         1   UNL       h48        49     0.05496        1.0080 ; qtot   -0.055
        50           h49bf         1   UNL       h49        50     0.05498        1.0080 ; qtot    0.000

[ bonds ]
;       ai        aj funct               r               k
         1         2     1        0.142721   259192.722168    ;  uncertainty r = 0.000061, k = 3.477468
         1        31     1        0.109367   308921.952441    ;  uncertainty r = 0.000017, k = 1.045593
         1        32     1        0.109367   308921.952441    ;  uncertainty r = 0.000017, k = 1.045593
         1        33     1        0.109367   308921.952441    ;  uncertainty r = 0.000017, k = 1.045593
         2         3     1        0.134579   306521.004492    ;  uncertainty r = 0.000174, k = 6.937410
         3         4     1        0.141457   435525.543066    ;  uncertainty r = 0.000098, k = 3.616339
         3         8     1        0.133947   415900.376660    ;  uncertainty r = 0.000237, k = 15.950688
         4         5     1        0.139900   456715.725684    ;  uncertainty r = 0.000097, k = 6.383200
         4        34     1        0.108792   347164.693066    ;  uncertainty r = 0.000028, k = 3.687787
         5         6     1        0.134511   440293.576758    ;  uncertainty r = 0.000084, k = 5.018000
         5        35     1        0.108862   330638.276123    ;  uncertainty r = 0.000021, k = 1.835886
         6         7     1        0.136000   488825.116602    ;  uncertainty r = 0.000048, k = 17.399341
         7         8     1        0.136663   496855.107422    ;  uncertainty r = 0.000147, k = 6.045102
         7         9     1        0.136629   315212.763965    ;  uncertainty r = 0.000090, k = 21.207731
         9        10     1        0.146405   223563.857910    ;  uncertainty r = 0.000056, k = 14.026003
         9        16     1        0.146405   223563.857910    ;  uncertainty r = 0.000056, k = 14.025983
        10        11     1        0.153378   218045.467334    ;  uncertainty r = 0.000067, k = 7.088220
        10        36     1        0.109551   306518.450781    ;  uncertainty r = 0.000069, k = 2.534282
        10        37     1        0.109551   306518.450781    ;  uncertainty r = 0.000069, k = 2.534282
        11        12     1        0.153480   216617.049121    ;  uncertainty r = 0.000023, k = 7.412723
        11        15     1        0.154451   200722.496875    ;  uncertainty r = 0.000080, k = 20.796785
        11        38     1        0.109350   305021.261133    ;  uncertainty r = 0.000029, k = 3.829702
        12        13     1        0.146976   241154.380664    ;  uncertainty r = 0.000047, k = 15.575172
        12        39     1        0.109439   307434.875488    ;  uncertainty r = 0.000026, k = 1.171544
        12        40     1        0.109439   307434.875488    ;  uncertainty r = 0.000026, k = 1.171544
        13        14     1        0.146976   241154.380664    ;  uncertainty r = 0.000047, k = 15.575144
        13        17     1        0.135088   335723.021045    ;  uncertainty r = 0.000166, k = 15.024462
        14        15     1        0.153480   216617.049121    ;  uncertainty r = 0.000023, k = 7.412681
        14        41     1        0.109439   307434.875488    ;  uncertainty r = 0.000026, k = 1.171521
        14        42     1        0.109439   307434.875488    ;  uncertainty r = 0.000026, k = 1.171521
        15        16     1        0.153378   218045.441797    ;  uncertainty r = 0.000067, k = 7.088228
        15        43     1        0.109350   305021.261133    ;  uncertainty r = 0.000029, k = 3.829660
        16        44     1        0.109551   306518.450781    ;  uncertainty r = 0.000069, k = 2.534287
        16        45     1        0.109551   306518.450781    ;  uncertainty r = 0.000069, k = 2.534287
        17        18     1        0.123492   739384.865723    ;  uncertainty r = 0.000039, k = 10.151716
        17        19     1        0.151093   272101.603271    ;  uncertainty r = 0.000079, k = 31.154101
        19        20     1        0.139399   331888.649609    ;  uncertainty r = 0.000087, k = 16.801357
        19        25     1        0.139529   322378.221484    ;  uncertainty r = 0.000112, k = 6.618765
        20        21     1        0.135284   339697.693359    ;  uncertainty r = 0.000139, k = 6.883764
        20        22     1        0.138876   355374.082080    ;  uncertainty r = 0.000029, k = 4.848304
        22        23     1        0.139230   385818.044873    ;  uncertainty r = 0.000031, k = 3.156029
        22        46     1        0.108754   335743.833789    ;  uncertainty r = 0.000014, k = 1.461762
        23        24     1        0.139117   371572.781299    ;  uncertainty r = 0.000042, k = 2.923689
        23        47     1        0.108705   332118.687891    ;  uncertainty r = 0.000011, k = 1.593644
        24        25     1        0.139176   333973.831201    ;  uncertainty r = 0.000089, k = 2.958672
        24        48     1        0.108623   333131.336426    ;  uncertainty r = 0.000019, k = 1.837628
        25        26     1        0.140554   317671.476855    ;  uncertainty r = 0.000102, k = 8.472881
        26        27     1        0.134456   229486.015723    ;  uncertainty r = 0.000080, k = 10.859863
        26        30     1        0.134456   229486.015723    ;  uncertainty r = 0.000080, k = 10.859863
        27        28     1        0.132965   463550.937305    ;  uncertainty r = 0.000052, k = 7.730519
        28        29     1        0.141781   249584.001709    ;  uncertainty r = 0.000103, k = 15.332670
        28        49     1        0.108418   339910.136572    ;  uncertainty r = 0.000037, k = 1.124302
        29        30     1        0.132965   463550.937305    ;  uncertainty r = 0.000052, k = 7.730523
        29        50     1        0.108418   339910.136572    ;  uncertainty r = 0.000037, k = 1.124299

[ angles ]
;       ai        aj        ak funct           theta             cth
         1         2         3     1      109.113892      505.580308    ;  uncertainty theta = 0.003177, k = 0.058551
         2         1        31     1      108.160873      435.809605    ;  uncertainty theta = 0.000882, k = 0.040949
         2         1        32     1      108.160873      435.809605    ;  uncertainty theta = 0.000882, k = 0.040949
         2         1        33     1      108.160873      435.809605    ;  uncertainty theta = 0.000882, k = 0.040949
         2         3         4     1      121.920677      464.090230    ;  uncertainty theta = 0.008492, k = 0.192271
         2         3         8     1      117.553856      628.316891    ;  uncertainty theta = 0.008018, k = 0.317885
         3         4         5     1      114.417946      468.539465    ;  uncertainty theta = 0.006077, k = 0.177060
         3         4        34     1      124.534119      276.560159    ;  uncertainty theta = 0.001908, k = 0.059692
         3         8         7     1      120.400902      392.164546    ;  uncertainty theta = 0.009616, k = 0.401953
         4         3         8     1      123.198730      554.823197    ;  uncertainty theta = 0.001942, k = 0.158320
         4         5         6     1      122.276894      738.958141    ;  uncertainty theta = 0.003449, k = 0.117109
         4         5        35     1      120.914078      276.217547    ;  uncertainty theta = 0.004802, k = 0.022974
         5         4        34     1      124.123512      285.057122    ;  uncertainty theta = 0.002950, k = 0.045781
         5         6         7     1      114.557312      403.081820    ;  uncertainty theta = 0.006596, k = 0.148907
         6         5        35     1      116.477463      326.844707    ;  uncertainty theta = 0.001749, k = 0.055112
         6         7         8     1      129.560776      740.666956    ;  uncertainty theta = 0.005013, k = 0.112641
         6         7         9     1      120.025497      543.092406    ;  uncertainty theta = 0.007926, k = 0.242025
         7         9        10     1      113.792152      430.019576    ;  uncertainty theta = 0.004361, k = 0.252565
         7         9        16     1      113.792152      430.019576    ;  uncertainty theta = 0.004361, k = 0.252565
         8         7         9     1      119.777161      572.728796    ;  uncertainty theta = 0.009232, k = 0.130868
         9        10        11     1      105.550194      835.319486    ;  uncertainty theta = 0.001900, k = 0.091868
         9        10        36     1      108.492508      455.883561    ;  uncertainty theta = 0.001071, k = 0.071968
         9        10        37     1      108.492508      455.883561    ;  uncertainty theta = 0.001071, k = 0.071968
         9        16        15     1      105.550194      835.319422    ;  uncertainty theta = 0.001900, k = 0.091868
         9        16        44     1      108.492508      455.883529    ;  uncertainty theta = 0.001071, k = 0.071968
         9        16        45     1      108.492508      455.883529    ;  uncertainty theta = 0.001071, k = 0.071968
        10         9        16     1      112.797447      484.451829    ;  uncertainty theta = 0.009823, k = 0.333733
        10        11        12     1      113.001526      495.885112    ;  uncertainty theta = 0.002967, k = 0.272650
        10        11        15     1      106.407143      696.228300    ;  uncertainty theta = 0.000820, k = 0.121960
        10        11        38     1      108.909218      387.529593    ;  uncertainty theta = 0.002428, k = 0.196423
        11        10        36     1      109.942749      401.681046    ;  uncertainty theta = 0.001744, k = 0.042629
        11        10        37     1      109.942749      401.681046    ;  uncertainty theta = 0.001744, k = 0.042629
        11        12        13     1      106.005104      800.142884    ;  uncertainty theta = 0.002837, k = 0.185313
        11        12        39     1      109.812805      398.157914    ;  uncertainty theta = 0.002056, k = 0.096133
        11        12        40     1      109.812805      398.157914    ;  uncertainty theta = 0.002056, k = 0.096133
        11        15        14     1      106.536072      683.535718    ;  uncertainty theta = 0.002057, k = 0.120116
        11        15        16     1      106.407143      696.228492    ;  uncertainty theta = 0.000820, k = 0.121960
        11        15        43     1      109.787766      408.249925    ;  uncertainty theta = 0.001833, k = 0.098421
        12        11        15     1      106.536072      683.535654    ;  uncertainty theta = 0.002057, k = 0.120117
        12        11        38     1      108.976547      381.109245    ;  uncertainty theta = 0.002391, k = 0.150517
        12        13        14     1      114.311745      540.101883    ;  uncertainty theta = 0.003229, k = 0.142692
        12        13        17     1      117.974327      368.182647    ;  uncertainty theta = 0.003980, k = 0.157584
        13        12        39     1      109.203384      457.892789    ;  uncertainty theta = 0.001598, k = 0.109127
        13        12        40     1      109.203384      457.892789    ;  uncertainty theta = 0.001598, k = 0.109127
        13        14        15     1      106.005104      800.142884    ;  uncertainty theta = 0.002837, k = 0.185312
        13        14        41     1      109.203384      457.892789    ;  uncertainty theta = 0.001598, k = 0.109127
        13        14        42     1      109.203384      457.892789    ;  uncertainty theta = 0.001598, k = 0.109127
        13        17        18     1      124.922256      740.345444    ;  uncertainty theta = 0.002458, k = 0.115631
        13        17        19     1      112.159889      368.733068    ;  uncertainty theta = 0.002788, k = 0.265066
        14        13        17     1      117.974327      368.182647    ;  uncertainty theta = 0.003980, k = 0.157584
        14        15        16     1      113.001526      495.885112    ;  uncertainty theta = 0.002967, k = 0.272650
        14        15        43     1      108.976547      381.109245    ;  uncertainty theta = 0.002391, k = 0.150517
        15        11        38     1      109.787766      408.249925    ;  uncertainty theta = 0.001833, k = 0.098421
        15        14        41     1      109.812805      398.157914    ;  uncertainty theta = 0.002056, k = 0.096133
        15        14        42     1      109.812805      398.157914    ;  uncertainty theta = 0.002056, k = 0.096133
        15        16        44     1      109.942749      401.681014    ;  uncertainty theta = 0.001744, k = 0.042629
        15        16        45     1      109.942749      401.681014    ;  uncertainty theta = 0.001744, k = 0.042629
        16        15        43     1      108.909218      387.529561    ;  uncertainty theta = 0.002428, k = 0.196423
        17        19        20     1      122.644753      394.633059    ;  uncertainty theta = 0.009716, k = 0.281698
        17        19        25     1      121.727440      360.483272    ;  uncertainty theta = 0.007459, k = 0.258991
        18        17        19     1      123.973495      474.716636    ;  uncertainty theta = 0.004986, k = 0.295298
        19        20        21     1      116.293533      481.718082    ;  uncertainty theta = 0.003628, k = 0.151958
        19        20        22     1      125.257851      358.228537    ;  uncertainty theta = 0.006392, k = 0.161234
        19        25        24     1      126.248352      383.964293    ;  uncertainty theta = 0.008470, k = 0.143041
        19        25        26     1      115.625549      424.401221    ;  uncertainty theta = 0.005276, k = 0.425221
        20        19        25     1      120.519882      451.019061    ;  uncertainty theta = 0.010533, k = 0.145475
        20        22        23     1      116.907005      480.293111    ;  uncertainty theta = 0.004692, k = 0.077746
        20        22        46     1      120.257706      280.421881    ;  uncertainty theta = 0.001644, k = 0.051464
        21        20        22     1      119.307655      515.150978    ;  uncertainty theta = 0.004276, k = 0.124646
        22        23        24     1      119.580162      501.480038    ;  uncertainty theta = 0.001152, k = 0.050795
        22        23        47     1      120.085129      283.076623    ;  uncertainty theta = 0.000551, k = 0.029815
        23        22        46     1      122.091454      282.690757    ;  uncertainty theta = 0.001292, k = 0.025850
        23        24        25     1      119.295853      511.815576    ;  uncertainty theta = 0.002200, k = 0.078353
        23        24        48     1      121.511391      292.121356    ;  uncertainty theta = 0.001401, k = 0.054323
        24        23        47     1      119.901108      278.613949    ;  uncertainty theta = 0.000633, k = 0.016225
        24        25        26     1      118.568016      453.799094    ;  uncertainty theta = 0.002843, k = 0.118727
        25        24        48     1      118.140259      263.598991    ;  uncertainty theta = 0.002697, k = 0.141621
        25        26        27     1      116.169701      430.317914    ;  uncertainty theta = 0.006654, k = 0.182017
        25        26        30     1      116.169701      430.317914    ;  uncertainty theta = 0.006654, k = 0.182017
        26        27        28     1      105.336914      920.571231    ;  uncertainty theta = 0.004509, k = 0.170853
        26        30        29     1      105.336914      920.571231    ;  uncertainty theta = 0.004509, k = 0.170853
        27        26        30     1      113.935104     1160.946488    ;  uncertainty theta = 0.004391, k = 0.191360
        27        28        29     1      108.874611      885.375796    ;  uncertainty theta = 0.003815, k = 0.097431
        27        28        49     1      119.790878      274.219077    ;  uncertainty theta = 0.003825, k = 0.115835
        28        29        30     1      108.874611      885.375796    ;  uncertainty theta = 0.003815, k = 0.097431
        28        29        50     1      127.065445      242.460712    ;  uncertainty theta = 0.004115, k = 0.077998
        29        28        49     1      127.065445      242.460712    ;  uncertainty theta = 0.004115, k = 0.077998
        30        29        50     1      119.790878      274.219077    ;  uncertainty theta = 0.003825, k = 0.115835
        31         1        32     1      109.236244      330.268307    ;  uncertainty theta = 0.002176, k = 0.017375
        31         1        33     1      109.236244      330.268307    ;  uncertainty theta = 0.002176, k = 0.017375
        32         1        33     1      109.236244      330.268307    ;  uncertainty theta = 0.002176, k = 0.017375
        36        10        37     1      105.123001      312.324913    ;  uncertainty theta = 0.002382, k = 0.114503
        39        12        40     1      105.371445      309.387890    ;  uncertainty theta = 0.003860, k = 0.079572
        41        14        42     1      105.371445      309.387890    ;  uncertainty theta = 0.003860, k = 0.079571
        44        16        45     1      105.123001      312.324913    ;  uncertainty theta = 0.002382, k = 0.114503

[ dihedrals ] ; propers for gromacs 4.5 or higher, use funct 9
;       ai        aj        ak        al funct           phase               k        pn
         1         2         3         4     9        0.000000        0.472149         1    ;  uncertainty k = 0.597976
         1         2         3         4     9      180.000000        9.432512         2    ;  uncertainty k = 0.173283
         1         2         3         4     9        0.000000        0.482891         3    ;  uncertainty k = 0.335052
         1         2         3         4     9      180.000000        0.177705         4    ;  uncertainty k = 0.167787
         1         2         3         8     9        0.000000        2.848001         1    ;  uncertainty k = 0.701118
         1         2         3         8     9      180.000000       11.725657         2    ;  uncertainty k = 0.265404
         1         2         3         8     9        0.000000        0.267851         3    ;  uncertainty k = 0.334651
         1         2         3         8     9      180.000000        0.318994         4    ;  uncertainty k = 0.123196
         2         3         4         5     9        0.000000       -0.047933         1    ;  uncertainty k = 0.578279
         2         3         4         5     9      180.000000        6.832622         2    ;  uncertainty k = 0.488095
         2         3         4         5     9        0.000000        0.599206         3    ;  uncertainty k = 0.399099
         2         3         4         5     9      180.000000        1.202720         4    ;  uncertainty k = 0.403667
         2         3         4        34     9        0.000000        0.159261         1    ;  uncertainty k = 0.304522
         2         3         4        34     9      180.000000        6.560650         2    ;  uncertainty k = 0.471911
         2         3         4        34     9        0.000000        0.670717         3    ;  uncertainty k = 0.254286
         2         3         4        34     9      180.000000        0.745957         4    ;  uncertainty k = 0.271878
         2         3         8         7     9        0.000000        0.302959         1    ;  uncertainty k = 1.351927
         2         3         8         7     9      180.000000       14.355508         2    ;  uncertainty k = 0.382949
         2         3         8         7     9        0.000000        2.093164         3    ;  uncertainty k = 0.532306
         2         3         8         7     9      180.000000        1.408950         4    ;  uncertainty k = 0.327598
         3         2         1        31     9        0.000000        1.513051         1    ;  uncertainty k = 0.448007
         3         2         1        31     9      180.000000       -0.317404         2    ;  uncertainty k = 0.215452
         3         2         1        31     9        0.000000        0.271082         3    ;  uncertainty k = 0.082891
         3         2         1        31     9      180.000000        0.435600         4    ;  uncertainty k = 0.072789
         3         2         1        32     9        0.000000        1.513051         1    ;  uncertainty k = 0.448007
         3         2         1        32     9      180.000000       -0.317404         2    ;  uncertainty k = 0.215452
         3         2         1        32     9        0.000000        0.271082         3    ;  uncertainty k = 0.082891
         3         2         1        32     9      180.000000        0.435600         4    ;  uncertainty k = 0.072789
         3         2         1        33     9        0.000000        1.513051         1    ;  uncertainty k = 0.448007
         3         2         1        33     9      180.000000       -0.317404         2    ;  uncertainty k = 0.215452
         3         2         1        33     9        0.000000        0.271082         3    ;  uncertainty k = 0.082891
         3         2         1        33     9      180.000000        0.435600         4    ;  uncertainty k = 0.072789
         3         4         5         6     9        0.000000       -0.151332         1    ;  uncertainty k = 0.533285
         3         4         5         6     9      180.000000       16.308751         2    ;  uncertainty k = 0.422817
         3         4         5         6     9        0.000000       -1.522571         3    ;  uncertainty k = 0.863107
         3         4         5         6     9      180.000000        0.730895         4    ;  uncertainty k = 0.315578
         3         4         5        35     9        0.000000       -0.388745         1    ;  uncertainty k = 0.348387
         3         4         5        35     9      180.000000        7.681048         2    ;  uncertainty k = 0.714997
         3         4         5        35     9        0.000000        0.897470         3    ;  uncertainty k = 0.277724
         3         4         5        35     9      180.000000        1.219875         4    ;  uncertainty k = 0.195452
         3         8         7         6     9        0.000000       -0.380653         1    ;  uncertainty k = 0.335234
         3         8         7         6     9      180.000000        9.006027         2    ;  uncertainty k = 0.665166
         3         8         7         6     9        0.000000        0.953840         3    ;  uncertainty k = 0.338358
         3         8         7         6     9      180.000000        0.737811         4    ;  uncertainty k = 0.085478
         3         8         7         9     9        0.000000        0.408835         1    ;  uncertainty k = 0.386321
         3         8         7         9     9      180.000000       10.859603         2    ;  uncertainty k = 0.522520
         3         8         7         9     9        0.000000        1.658353         3    ;  uncertainty k = 0.276506
         3         8         7         9     9      180.000000        0.950322         4    ;  uncertainty k = 0.244958
         4         3         8         7     9        0.000000       -0.303713         1    ;  uncertainty k = 1.180086
         4         3         8         7     9      180.000000       12.233861         2    ;  uncertainty k = 0.351621
         4         3         8         7     9        0.000000        0.320232         3    ;  uncertainty k = 0.492386
         4         3         8         7     9      180.000000        0.995256         4    ;  uncertainty k = 0.347861
         4         5         6         7     9        0.000000       -0.257969         1    ;  uncertainty k = 0.451405
         4         5         6         7     9      180.000000       16.600095         2    ;  uncertainty k = 0.443810
         4         5         6         7     9        0.000000       -0.696674         3    ;  uncertainty k = 0.715503
         4         5         6         7     9      180.000000        1.231554         4    ;  uncertainty k = 0.465372
         5         4         3         8     9        0.000000       -0.047348         1    ;  uncertainty k = 0.220270
         5         4         3         8     9      180.000000        8.985996         2    ;  uncertainty k = 0.790771
         5         4         3         8     9        0.000000       -1.188248         3    ;  uncertainty k = 0.467781
         5         4         3         8     9      180.000000        1.079663         4    ;  uncertainty k = 0.409771
         5         6         7         8     9        0.000000        0.039868         1    ;  uncertainty k = 0.803565
         5         6         7         8     9      180.000000        9.588902         2    ;  uncertainty k = 0.602958
         5         6         7         8     9        0.000000        0.823718         3    ;  uncertainty k = 0.619923
         5         6         7         8     9      180.000000        0.796577         4    ;  uncertainty k = 0.113647
         5         6         7         9     9        0.000000        0.505499         1    ;  uncertainty k = 1.570340
         5         6         7         9     9      180.000000       10.621360         2    ;  uncertainty k = 0.299916
         5         6         7         9     9        0.000000        1.895128         3    ;  uncertainty k = 0.529632
         5         6         7         9     9      180.000000        1.032613         4    ;  uncertainty k = 0.122822
         6         5         4        34     9        0.000000        0.204643         1    ;  uncertainty k = 0.345089
         6         5         4        34     9      180.000000        9.902337         2    ;  uncertainty k = 0.539709
         6         5         4        34     9        0.000000        1.113030         3    ;  uncertainty k = 0.335589
         6         5         4        34     9      180.000000        1.685644         4    ;  uncertainty k = 0.161110
         6         7         9        10     9        0.000000        4.692269         1    ;  uncertainty k = 0.557272
         6         7         9        10     9      180.000000       12.215188         2    ;  uncertainty k = 0.160764
         6         7         9        10     9        0.000000        0.202763         3    ;  uncertainty k = 0.167980
         6         7         9        10     9      180.000000       -0.307557         4    ;  uncertainty k = 0.083701
         6         7         9        16     9        0.000000        4.692269         1    ;  uncertainty k = 0.557271
         6         7         9        16     9      180.000000       12.215187         2    ;  uncertainty k = 0.160764
         6         7         9        16     9        0.000000        0.202763         3    ;  uncertainty k = 0.167981
         6         7         9        16     9      180.000000       -0.307557         4    ;  uncertainty k = 0.083701
         7         6         5        35     9        0.000000       -0.355913         1    ;  uncertainty k = 0.898747
         7         6         5        35     9      180.000000       15.481442         2    ;  uncertainty k = 0.385659
         7         6         5        35     9        0.000000        1.590966         3    ;  uncertainty k = 0.764116
         7         6         5        35     9      180.000000        1.171592         4    ;  uncertainty k = 0.535548
         7         9        10        11     9        0.000000       -5.302926         1    ;  uncertainty k = 1.743430
         7         9        10        11     9      180.000000        0.602178         2    ;  uncertainty k = 0.655509
         7         9        10        11     9        0.000000        0.770572         3    ;  uncertainty k = 0.276940
         7         9        10        11     9      180.000000        0.319836         4    ;  uncertainty k = 0.107612
         7         9        10        36     9        0.000000       -0.238027         1    ;  uncertainty k = 0.728296
         7         9        10        36     9      180.000000        0.971278         2    ;  uncertainty k = 0.481041
         7         9        10        36     9        0.000000        0.567432         3    ;  uncertainty k = 0.123063
         7         9        10        36     9      180.000000        0.379605         4    ;  uncertainty k = 0.100731
         7         9        10        37     9        0.000000       -0.238027         1    ;  uncertainty k = 0.728296
         7         9        10        37     9      180.000000        0.971278         2    ;  uncertainty k = 0.481041
         7         9        10        37     9        0.000000        0.567432         3    ;  uncertainty k = 0.123063
         7         9        10        37     9      180.000000        0.379605         4    ;  uncertainty k = 0.100731
         7         9        16        15     9        0.000000       -5.302925         1    ;  uncertainty k = 1.743427
         7         9        16        15     9      180.000000        0.602177         2    ;  uncertainty k = 0.655509
         7         9        16        15     9        0.000000        0.770572         3    ;  uncertainty k = 0.276940
         7         9        16        15     9      180.000000        0.319836         4    ;  uncertainty k = 0.107611
         7         9        16        44     9        0.000000       -0.238027         1    ;  uncertainty k = 0.728298
         7         9        16        44     9      180.000000        0.971278         2    ;  uncertainty k = 0.481042
         7         9        16        44     9        0.000000        0.567431         3    ;  uncertainty k = 0.123063
         7         9        16        44     9      180.000000        0.379605         4    ;  uncertainty k = 0.100730
         7         9        16        45     9        0.000000       -0.238027         1    ;  uncertainty k = 0.728298
         7         9        16        45     9      180.000000        0.971278         2    ;  uncertainty k = 0.481042
         7         9        16        45     9        0.000000        0.567431         3    ;  uncertainty k = 0.123063
         7         9        16        45     9      180.000000        0.379605         4    ;  uncertainty k = 0.100730
         8         3         4        34     9        0.000000        0.195921         1    ;  uncertainty k = 0.534857
         8         3         4        34     9      180.000000        6.689640         2    ;  uncertainty k = 0.576427
         8         3         4        34     9        0.000000        0.920364         3    ;  uncertainty k = 0.449063
         8         3         4        34     9      180.000000        1.310103         4    ;  uncertainty k = 0.085038
         8         7         9        10     9        0.000000        6.308774         1    ;  uncertainty k = 0.588285
         8         7         9        10     9      180.000000       12.079516         2    ;  uncertainty k = 0.202614
         8         7         9        10     9        0.000000        0.260237         3    ;  uncertainty k = 0.193531
         8         7         9        10     9      180.000000       -0.359376         4    ;  uncertainty k = 0.072631
         8         7         9        16     9        0.000000        6.308774         1    ;  uncertainty k = 0.588287
         8         7         9        16     9      180.000000       12.079518         2    ;  uncertainty k = 0.202615
         8         7         9        16     9        0.000000        0.260237         3    ;  uncertainty k = 0.193530
         8         7         9        16     9      180.000000       -0.359376         4    ;  uncertainty k = 0.072631
         9        10        11        12     9        0.000000       -1.969588         1    ;  uncertainty k = 1.121496
         9        10        11        12     9      180.000000        0.976113         2    ;  uncertainty k = 0.878021
         9        10        11        12     9        0.000000        1.650839         3    ;  uncertainty k = 0.390629
         9        10        11        12     9      180.000000       -0.167318         4    ;  uncertainty k = 0.235708
         9        10        11        15     9        0.000000       -0.234139         1    ;  uncertainty k = 1.694192
         9        10        11        15     9      180.000000        6.149784         2    ;  uncertainty k = 1.121745
         9        10        11        15     9        0.000000        0.669254         3    ;  uncertainty k = 0.339186
         9        10        11        15     9      180.000000       -1.477883         4    ;  uncertainty k = 0.504281
         9        10        11        38     9        0.000000        0.592897         1    ;  uncertainty k = 0.849487
         9        10        11        38     9      180.000000        1.303493         2    ;  uncertainty k = 0.486114
         9        10        11        38     9        0.000000        1.170717         3    ;  uncertainty k = 0.225867
         9        10        11        38     9      180.000000       -0.076575         4    ;  uncertainty k = 0.179523
         9        16        15        11     9        0.000000       -0.234138         1    ;  uncertainty k = 1.694191
         9        16        15        11     9      180.000000        6.149784         2    ;  uncertainty k = 1.121746
         9        16        15        11     9        0.000000        0.669253         3    ;  uncertainty k = 0.339185
         9        16        15        11     9      180.000000       -1.477883         4    ;  uncertainty k = 0.504281
         9        16        15        14     9        0.000000       -1.969589         1    ;  uncertainty k = 1.121495
         9        16        15        14     9      180.000000        0.976114         2    ;  uncertainty k = 0.878021
         9        16        15        14     9        0.000000        1.650838         3    ;  uncertainty k = 0.390629
         9        16        15        14     9      180.000000       -0.167319         4    ;  uncertainty k = 0.235708
         9        16        15        43     9        0.000000        0.592897         1    ;  uncertainty k = 0.849485
         9        16        15        43     9      180.000000        1.303492         2    ;  uncertainty k = 0.486114
         9        16        15        43     9        0.000000        1.170717         3    ;  uncertainty k = 0.225866
         9        16        15        43     9      180.000000       -0.076575         4    ;  uncertainty k = 0.179523
        10         9        16        15     9        0.000000        0.462241         1    ;  uncertainty k = 1.077758
        10         9        16        15     9      180.000000        1.397764         2    ;  uncertainty k = 1.165615
        10         9        16        15     9        0.000000        0.869817         3    ;  uncertainty k = 0.339962
        10         9        16        15     9      180.000000        0.027361         4    ;  uncertainty k = 0.166088
        10         9        16        44     9        0.000000       -2.075247         1    ;  uncertainty k = 0.726340
        10         9        16        44     9      180.000000        1.292025         2    ;  uncertainty k = 0.399669
        10         9        16        44     9        0.000000        1.141931         3    ;  uncertainty k = 0.082299
        10         9        16        44     9      180.000000        0.252839         4    ;  uncertainty k = 0.123858
        10         9        16        45     9        0.000000       -2.075247         1    ;  uncertainty k = 0.726340
        10         9        16        45     9      180.000000        1.292025         2    ;  uncertainty k = 0.399669
        10         9        16        45     9        0.000000        1.141931         3    ;  uncertainty k = 0.082299
        10         9        16        45     9      180.000000        0.252839         4    ;  uncertainty k = 0.123858
        10        11        12        13     9        0.000000       -2.607420         1    ;  uncertainty k = 0.995424
        10        11        12        13     9      180.000000        0.022076         2    ;  uncertainty k = 0.727033
        10        11        12        13     9        0.000000        1.612970         3    ;  uncertainty k = 0.235291
        10        11        12        13     9      180.000000       -0.185713         4    ;  uncertainty k = 0.112586
        10        11        12        39     9        0.000000       -0.498818         1    ;  uncertainty k = 0.107247
        10        11        12        39     9      180.000000       -0.409706         2    ;  uncertainty k = 0.197166
        10        11        12        39     9        0.000000        0.564543         3    ;  uncertainty k = 0.186998
        10        11        12        39     9      180.000000       -0.072177         4    ;  uncertainty k = 0.062323
        10        11        12        40     9        0.000000       -0.498818         1    ;  uncertainty k = 0.107247
        10        11        12        40     9      180.000000       -0.409706         2    ;  uncertainty k = 0.197166
        10        11        12        40     9        0.000000        0.564543         3    ;  uncertainty k = 0.186998
        10        11        12        40     9      180.000000       -0.072177         4    ;  uncertainty k = 0.062323
        10        11        15        14     9        0.000000       -3.847150         1    ;  uncertainty k = 0.842081
        10        11        15        14     9      180.000000        0.994502         2    ;  uncertainty k = 1.017626
        10        11        15        14     9        0.000000        1.189094         3    ;  uncertainty k = 0.581588
        10        11        15        14     9      180.000000       -0.416044         4    ;  uncertainty k = 0.334399
        10        11        15        16     9        0.000000       -3.896618         1    ;  uncertainty k = 1.087275
        10        11        15        16     9      180.000000        1.035025         2    ;  uncertainty k = 1.026286
        10        11        15        16     9        0.000000        1.207838         3    ;  uncertainty k = 0.671623
        10        11        15        16     9      180.000000       -0.436931         4    ;  uncertainty k = 0.343366
        10        11        15        43     9        0.000000       -1.223112         1    ;  uncertainty k = 0.611377
        10        11        15        43     9      180.000000        0.489634         2    ;  uncertainty k = 0.414978
        10        11        15        43     9        0.000000        0.997353         3    ;  uncertainty k = 0.241670
        10        11        15        43     9      180.000000        0.066778         4    ;  uncertainty k = 0.087125
        11        10         9        16     9        0.000000        0.462241         1    ;  uncertainty k = 1.077758
        11        10         9        16     9      180.000000        1.397765         2    ;  uncertainty k = 1.165615
        11        10         9        16     9        0.000000        0.869817         3    ;  uncertainty k = 0.339962
        11        10         9        16     9      180.000000        0.027361         4    ;  uncertainty k = 0.166088
        11        12        13        14     9        0.000000       -0.578347         1    ;  uncertainty k = 0.919747
        11        12        13        14     9      180.000000        0.242792         2    ;  uncertainty k = 0.701024
        11        12        13        14     9        0.000000        0.797027         3    ;  uncertainty k = 0.218418
        11        12        13        14     9      180.000000        0.154107         4    ;  uncertainty k = 0.246781
        11        12        13        17     9        0.000000       -0.209381         1    ;  uncertainty k = 0.966461
        11        12        13        17     9      180.000000       -0.541701         2    ;  uncertainty k = 0.373893
        11        12        13        17     9        0.000000        0.202801         3    ;  uncertainty k = 0.362931
        11        12        13        17     9      180.000000        0.702312         4    ;  uncertainty k = 0.132281
        11        15        14        13     9        0.000000       -0.736764         1    ;  uncertainty k = 0.633515
        11        15        14        13     9      180.000000        6.025412         2    ;  uncertainty k = 1.000861
        11        15        14        13     9        0.000000        0.435197         3    ;  uncertainty k = 0.297546
        11        15        14        13     9      180.000000       -1.170163         4    ;  uncertainty k = 0.204855
        11        15        14        41     9        0.000000        0.480411         1    ;  uncertainty k = 0.492791
        11        15        14        41     9      180.000000       -1.104496         2    ;  uncertainty k = 0.672329
        11        15        14        41     9        0.000000       -0.270073         3    ;  uncertainty k = 0.170671
        11        15        14        41     9      180.000000       -0.013160         4    ;  uncertainty k = 0.174221
        11        15        14        42     9        0.000000        0.480411         1    ;  uncertainty k = 0.492791
        11        15        14        42     9      180.000000       -1.104496         2    ;  uncertainty k = 0.672329
        11        15        14        42     9        0.000000       -0.270073         3    ;  uncertainty k = 0.170671
        11        15        14        42     9      180.000000       -0.013160         4    ;  uncertainty k = 0.174221
        11        15        16        44     9        0.000000        0.646621         1    ;  uncertainty k = 0.517783
        11        15        16        44     9      180.000000       -1.099688         2    ;  uncertainty k = 0.743824
        11        15        16        44     9        0.000000       -0.334779         3    ;  uncertainty k = 0.213643
        11        15        16        44     9      180.000000       -0.018734         4    ;  uncertainty k = 0.206092
        11        15        16        45     9        0.000000        0.646621         1    ;  uncertainty k = 0.517783
        11        15        16        45     9      180.000000       -1.099688         2    ;  uncertainty k = 0.743824
        11        15        16        45     9        0.000000       -0.334779         3    ;  uncertainty k = 0.213643
        11        15        16        45     9      180.000000       -0.018734         4    ;  uncertainty k = 0.206092
        12        11        10        36     9        0.000000       -0.670734         1    ;  uncertainty k = 0.233995
        12        11        10        36     9      180.000000       -0.386310         2    ;  uncertainty k = 0.258590
        12        11        10        36     9        0.000000        0.557637         3    ;  uncertainty k = 0.179621
        12        11        10        36     9      180.000000       -0.081826         4    ;  uncertainty k = 0.095492
        12        11        10        37     9        0.000000       -0.670734         1    ;  uncertainty k = 0.233995
        12        11        10        37     9      180.000000       -0.386310         2    ;  uncertainty k = 0.258590
        12        11        10        37     9        0.000000        0.557637         3    ;  uncertainty k = 0.179621
        12        11        10        37     9      180.000000       -0.081826         4    ;  uncertainty k = 0.095492
        12        11        15        14     9        0.000000       -3.717091         1    ;  uncertainty k = 0.646014
        12        11        15        14     9      180.000000        0.952705         2    ;  uncertainty k = 0.984304
        12        11        15        14     9        0.000000        1.178983         3    ;  uncertainty k = 0.499657
        12        11        15        14     9      180.000000       -0.410261         4    ;  uncertainty k = 0.338854
        12        11        15        16     9        0.000000       -3.847151         1    ;  uncertainty k = 0.842082
        12        11        15        16     9      180.000000        0.994504         2    ;  uncertainty k = 1.017625
        12        11        15        16     9        0.000000        1.189094         3    ;  uncertainty k = 0.581588
        12        11        15        16     9      180.000000       -0.416044         4    ;  uncertainty k = 0.334399
        12        11        15        43     9        0.000000       -1.291634         1    ;  uncertainty k = 0.560343
        12        11        15        43     9      180.000000        0.594321         2    ;  uncertainty k = 0.368266
        12        11        15        43     9        0.000000        1.030260         3    ;  uncertainty k = 0.246250
        12        11        15        43     9      180.000000        0.081405         4    ;  uncertainty k = 0.059901
        12        13        14        15     9        0.000000       -0.578347         1    ;  uncertainty k = 0.919747
        12        13        14        15     9      180.000000        0.242792         2    ;  uncertainty k = 0.701025
        12        13        14        15     9        0.000000        0.797027         3    ;  uncertainty k = 0.218419
        12        13        14        15     9      180.000000        0.154107         4    ;  uncertainty k = 0.246781
        12        13        14        41     9        0.000000       -1.810377         1    ;  uncertainty k = 0.576097
        12        13        14        41     9      180.000000        1.086382         2    ;  uncertainty k = 0.426528
        12        13        14        41     9        0.000000        1.250141         3    ;  uncertainty k = 0.136647
        12        13        14        41     9      180.000000        0.301768         4    ;  uncertainty k = 0.117464
        12        13        14        42     9        0.000000       -1.810377         1    ;  uncertainty k = 0.576097
        12        13        14        42     9      180.000000        1.086382         2    ;  uncertainty k = 0.426528
        12        13        14        42     9        0.000000        1.250141         3    ;  uncertainty k = 0.136647
        12        13        14        42     9      180.000000        0.301768         4    ;  uncertainty k = 0.117464
        12        13        17        18     9        0.000000        6.357003         1    ;  uncertainty k = 0.547606
        12        13        17        18     9      180.000000       16.962734         2    ;  uncertainty k = 0.212954
        12        13        17        18     9        0.000000        0.267170         3    ;  uncertainty k = 0.202910
        12        13        17        18     9      180.000000       -1.190649         4    ;  uncertainty k = 0.124612
        12        13        17        19     9        0.000000        3.407849         1    ;  uncertainty k = 1.339110
        12        13        17        19     9      180.000000        8.996075         2    ;  uncertainty k = 0.412445
        12        13        17        19     9        0.000000        1.595044         3    ;  uncertainty k = 0.230309
        12        13        17        19     9      180.000000       -0.020267         4    ;  uncertainty k = 0.371981
        13        12        11        15     9        0.000000       -0.736762         1    ;  uncertainty k = 0.633517
        13        12        11        15     9      180.000000        6.025413         2    ;  uncertainty k = 1.000861
        13        12        11        15     9        0.000000        0.435196         3    ;  uncertainty k = 0.297545
        13        12        11        15     9      180.000000       -1.170163         4    ;  uncertainty k = 0.204856
        13        12        11        38     9        0.000000        0.123161         1    ;  uncertainty k = 0.632773
        13        12        11        38     9      180.000000        0.836162         2    ;  uncertainty k = 0.434791
        13        12        11        38     9        0.000000        1.098159         3    ;  uncertainty k = 0.161086
        13        12        11        38     9      180.000000       -0.066245         4    ;  uncertainty k = 0.104331
        13        14        15        16     9        0.000000       -2.607419         1    ;  uncertainty k = 0.995424
        13        14        15        16     9      180.000000        0.022076         2    ;  uncertainty k = 0.727033
        13        14        15        16     9        0.000000        1.612970         3    ;  uncertainty k = 0.235290
        13        14        15        16     9      180.000000       -0.185713         4    ;  uncertainty k = 0.112586
        13        14        15        43     9        0.000000        0.123160         1    ;  uncertainty k = 0.632774
        13        14        15        43     9      180.000000        0.836161         2    ;  uncertainty k = 0.434791
        13        14        15        43     9        0.000000        1.098159         3    ;  uncertainty k = 0.161086
        13        14        15        43     9      180.000000       -0.066245         4    ;  uncertainty k = 0.104331
        13        17        19        20     9        0.000000        1.851367         1    ;  uncertainty k = 1.259576
        13        17        19        20     9      180.000000        5.752965         2    ;  uncertainty k = 0.175508
        13        17        19        20     9        0.000000        0.162215         3    ;  uncertainty k = 0.318225
        13        17        19        20     9      180.000000        0.484794         4    ;  uncertainty k = 0.155871
        13        17        19        25     9        0.000000        3.709916         1    ;  uncertainty k = 1.132205
        13        17        19        25     9      180.000000        5.907216         2    ;  uncertainty k = 0.295098
        13        17        19        25     9        0.000000        0.162296         3    ;  uncertainty k = 0.106376
        13        17        19        25     9      180.000000        0.490410         4    ;  uncertainty k = 0.140372
        14        13        12        39     9        0.000000       -1.810377         1    ;  uncertainty k = 0.576098
        14        13        12        39     9      180.000000        1.086382         2    ;  uncertainty k = 0.426526
        14        13        12        39     9        0.000000        1.250141         3    ;  uncertainty k = 0.136647
        14        13        12        39     9      180.000000        0.301768         4    ;  uncertainty k = 0.117464
        14        13        12        40     9        0.000000       -1.810377         1    ;  uncertainty k = 0.576098
        14        13        12        40     9      180.000000        1.086382         2    ;  uncertainty k = 0.426526
        14        13        12        40     9        0.000000        1.250141         3    ;  uncertainty k = 0.136647
        14        13        12        40     9      180.000000        0.301768         4    ;  uncertainty k = 0.117464
        14        13        17        18     9        0.000000        6.357001         1    ;  uncertainty k = 0.547606
        14        13        17        18     9      180.000000       16.962734         2    ;  uncertainty k = 0.212955
        14        13        17        18     9        0.000000        0.267170         3    ;  uncertainty k = 0.202910
        14        13        17        18     9      180.000000       -1.190649         4    ;  uncertainty k = 0.124611
        14        13        17        19     9        0.000000        3.407847         1    ;  uncertainty k = 1.339110
        14        13        17        19     9      180.000000        8.996074         2    ;  uncertainty k = 0.412445
        14        13        17        19     9        0.000000        1.595043         3    ;  uncertainty k = 0.230310
        14        13        17        19     9      180.000000       -0.020268         4    ;  uncertainty k = 0.371981
        14        15        11        38     9        0.000000       -1.291633         1    ;  uncertainty k = 0.560343
        14        15        11        38     9      180.000000        0.594321         2    ;  uncertainty k = 0.368268
        14        15        11        38     9        0.000000        1.030260         3    ;  uncertainty k = 0.246250
        14        15        11        38     9      180.000000        0.081405         4    ;  uncertainty k = 0.059900
        14        15        16        44     9        0.000000       -0.670733         1    ;  uncertainty k = 0.233996
        14        15        16        44     9      180.000000       -0.386309         2    ;  uncertainty k = 0.258591
        14        15        16        44     9        0.000000        0.557638         3    ;  uncertainty k = 0.179621
        14        15        16        44     9      180.000000       -0.081826         4    ;  uncertainty k = 0.095492
        14        15        16        45     9        0.000000       -0.670733         1    ;  uncertainty k = 0.233996
        14        15        16        45     9      180.000000       -0.386309         2    ;  uncertainty k = 0.258591
        14        15        16        45     9        0.000000        0.557638         3    ;  uncertainty k = 0.179621
        14        15        16        45     9      180.000000       -0.081826         4    ;  uncertainty k = 0.095492
        15        11        10        36     9        0.000000        0.646621         1    ;  uncertainty k = 0.517781
        15        11        10        36     9      180.000000       -1.099689         2    ;  uncertainty k = 0.743823
        15        11        10        36     9        0.000000       -0.334778         3    ;  uncertainty k = 0.213644
        15        11        10        36     9      180.000000       -0.018734         4    ;  uncertainty k = 0.206091
        15        11        10        37     9        0.000000        0.646621         1    ;  uncertainty k = 0.517781
        15        11        10        37     9      180.000000       -1.099689         2    ;  uncertainty k = 0.743823
        15        11        10        37     9        0.000000       -0.334778         3    ;  uncertainty k = 0.213644
        15        11        10        37     9      180.000000       -0.018734         4    ;  uncertainty k = 0.206091
        15        11        12        39     9        0.000000        0.480411         1    ;  uncertainty k = 0.492791
        15        11        12        39     9      180.000000       -1.104495         2    ;  uncertainty k = 0.672328
        15        11        12        39     9        0.000000       -0.270073         3    ;  uncertainty k = 0.170671
        15        11        12        39     9      180.000000       -0.013161         4    ;  uncertainty k = 0.174221
        15        11        12        40     9        0.000000        0.480411         1    ;  uncertainty k = 0.492791
        15        11        12        40     9      180.000000       -1.104495         2    ;  uncertainty k = 0.672328
        15        11        12        40     9        0.000000       -0.270073         3    ;  uncertainty k = 0.170671
        15        11        12        40     9      180.000000       -0.013161         4    ;  uncertainty k = 0.174221
        15        14        13        17     9        0.000000       -0.209380         1    ;  uncertainty k = 0.966459
        15        14        13        17     9      180.000000       -0.541701         2    ;  uncertainty k = 0.373894
        15        14        13        17     9        0.000000        0.202801         3    ;  uncertainty k = 0.362931
        15        14        13        17     9      180.000000        0.702311         4    ;  uncertainty k = 0.132281
        16         9        10        36     9        0.000000       -2.075246         1    ;  uncertainty k = 0.726340
        16         9        10        36     9      180.000000        1.292025         2    ;  uncertainty k = 0.399669
        16         9        10        36     9        0.000000        1.141931         3    ;  uncertainty k = 0.082297
        16         9        10        36     9      180.000000        0.252839         4    ;  uncertainty k = 0.123858
        16         9        10        37     9        0.000000       -2.075246         1    ;  uncertainty k = 0.726340
        16         9        10        37     9      180.000000        1.292025         2    ;  uncertainty k = 0.399669
        16         9        10        37     9        0.000000        1.141931         3    ;  uncertainty k = 0.082297
        16         9        10        37     9      180.000000        0.252839         4    ;  uncertainty k = 0.123858
        16        15        11        38     9        0.000000       -1.223110         1    ;  uncertainty k = 0.611378
        16        15        11        38     9      180.000000        0.489635         2    ;  uncertainty k = 0.414979
        16        15        11        38     9        0.000000        0.997353         3    ;  uncertainty k = 0.241669
        16        15        11        38     9      180.000000        0.066778         4    ;  uncertainty k = 0.087125
        16        15        14        41     9        0.000000       -0.498818         1    ;  uncertainty k = 0.107248
        16        15        14        41     9      180.000000       -0.409705         2    ;  uncertainty k = 0.197166
        16        15        14        41     9        0.000000        0.564544         3    ;  uncertainty k = 0.186998
        16        15        14        41     9      180.000000       -0.072177         4    ;  uncertainty k = 0.062323
        16        15        14        42     9        0.000000       -0.498818         1    ;  uncertainty k = 0.107248
        16        15        14        42     9      180.000000       -0.409705         2    ;  uncertainty k = 0.197166
        16        15        14        42     9        0.000000        0.564544         3    ;  uncertainty k = 0.186998
        16        15        14        42     9      180.000000       -0.072177         4    ;  uncertainty k = 0.062323
        17        13        12        39     9        0.000000        1.416105         1    ;  uncertainty k = 0.719804
        17        13        12        39     9      180.000000        0.065610         2    ;  uncertainty k = 0.093474
        17        13        12        39     9        0.000000        0.002232         3    ;  uncertainty k = 0.089343
        17        13        12        39     9      180.000000        0.277826         4    ;  uncertainty k = 0.071341
        17        13        12        40     9        0.000000        1.416105         1    ;  uncertainty k = 0.719804
        17        13        12        40     9      180.000000        0.065610         2    ;  uncertainty k = 0.093474
        17        13        12        40     9        0.000000        0.002232         3    ;  uncertainty k = 0.089343
        17        13        12        40     9      180.000000        0.277826         4    ;  uncertainty k = 0.071341
        17        13        14        41     9        0.000000        1.416105         1    ;  uncertainty k = 0.719804
        17        13        14        41     9      180.000000        0.065610         2    ;  uncertainty k = 0.093472
        17        13        14        41     9        0.000000        0.002232         3    ;  uncertainty k = 0.089343
        17        13        14        41     9      180.000000        0.277826         4    ;  uncertainty k = 0.071341
        17        13        14        42     9        0.000000        1.416105         1    ;  uncertainty k = 0.719804
        17        13        14        42     9      180.000000        0.065610         2    ;  uncertainty k = 0.093472
        17        13        14        42     9        0.000000        0.002232         3    ;  uncertainty k = 0.089343
        17        13        14        42     9      180.000000        0.277826         4    ;  uncertainty k = 0.071341
        17        19        20        21     9        0.000000        0.086680         1    ;  uncertainty k = 0.322670
        17        19        20        21     9      180.000000       11.407953         2    ;  uncertainty k = 0.599565
        17        19        20        21     9        0.000000        1.385161         3    ;  uncertainty k = 0.187005
        17        19        20        21     9      180.000000        1.483635         4    ;  uncertainty k = 0.318096
        17        19        20        22     9        0.000000        0.114462         1    ;  uncertainty k = 0.659063
        17        19        20        22     9      180.000000        6.312817         2    ;  uncertainty k = 0.577136
        17        19        20        22     9        0.000000        1.356865         3    ;  uncertainty k = 0.282275
        17        19        20        22     9      180.000000        1.940646         4    ;  uncertainty k = 0.196893
        17        19        25        24     9        0.000000        0.266109         1    ;  uncertainty k = 0.262230
        17        19        25        24     9      180.000000        6.791976         2    ;  uncertainty k = 0.556220
        17        19        25        24     9        0.000000        1.305735         3    ;  uncertainty k = 0.332052
        17        19        25        24     9      180.000000        1.750369         4    ;  uncertainty k = 0.249436
        17        19        25        26     9        0.000000       -0.079088         1    ;  uncertainty k = 0.890587
        17        19        25        26     9      180.000000       10.037557         2    ;  uncertainty k = 0.622174
        17        19        25        26     9        0.000000        1.315712         3    ;  uncertainty k = 0.504290
        17        19        25        26     9      180.000000        1.286094         4    ;  uncertainty k = 0.361801
        18        17        19        20     9        0.000000       -1.928785         1    ;  uncertainty k = 0.969843
        18        17        19        20     9      180.000000        5.038791         2    ;  uncertainty k = 0.443316
        18        17        19        20     9        0.000000        0.869540         3    ;  uncertainty k = 0.424298
        18        17        19        20     9      180.000000        0.459984         4    ;  uncertainty k = 0.229979
        18        17        19        25     9        0.000000       -3.997731         1    ;  uncertainty k = 0.906468
        18        17        19        25     9      180.000000        5.945518         2    ;  uncertainty k = 0.542758
        18        17        19        25     9        0.000000        0.551178         3    ;  uncertainty k = 0.549645
        18        17        19        25     9      180.000000        0.513462         4    ;  uncertainty k = 0.329406
        19        20        22        23     9        0.000000        0.011529         1    ;  uncertainty k = 0.194930
        19        20        22        23     9      180.000000        8.787238         2    ;  uncertainty k = 0.361867
        19        20        22        23     9        0.000000        0.106727         3    ;  uncertainty k = 0.344316
        19        20        22        23     9      180.000000        1.205900         4    ;  uncertainty k = 0.276948
        19        20        22        46     9        0.000000       -0.168918         1    ;  uncertainty k = 0.390695
        19        20        22        46     9      180.000000        5.695522         2    ;  uncertainty k = 0.674905
        19        20        22        46     9        0.000000        1.129293         3    ;  uncertainty k = 0.356557
        19        20        22        46     9      180.000000        1.505167         4    ;  uncertainty k = 0.216214
        19        25        24        23     9        0.000000       -0.242508         1    ;  uncertainty k = 0.315737
        19        25        24        23     9      180.000000        9.681246         2    ;  uncertainty k = 0.496020
        19        25        24        23     9        0.000000        0.240132         3    ;  uncertainty k = 0.161668
        19        25        24        23     9      180.000000        1.271249         4    ;  uncertainty k = 0.330409
        19        25        24        48     9        0.000000       -0.007148         1    ;  uncertainty k = 0.345797
        19        25        24        48     9      180.000000        6.393420         2    ;  uncertainty k = 0.363299
        19        25        24        48     9        0.000000        1.235598         3    ;  uncertainty k = 0.195907
        19        25        24        48     9      180.000000        1.608512         4    ;  uncertainty k = 0.191460
        19        25        26        27     9        0.000000       -1.535069         1    ;  uncertainty k = 0.563416
        19        25        26        27     9      180.000000        4.499715         2    ;  uncertainty k = 0.535585
        19        25        26        27     9        0.000000        0.637687         3    ;  uncertainty k = 0.351002
        19        25        26        27     9      180.000000       -0.090463         4    ;  uncertainty k = 0.183190
        19        25        26        30     9        0.000000       -1.535069         1    ;  uncertainty k = 0.563416
        19        25        26        30     9      180.000000        4.499715         2    ;  uncertainty k = 0.535585
        19        25        26        30     9        0.000000        0.637687         3    ;  uncertainty k = 0.351002
        19        25        26        30     9      180.000000       -0.090463         4    ;  uncertainty k = 0.183190
        20        19        25        24     9        0.000000       -0.242351         1    ;  uncertainty k = 0.420152
        20        19        25        24     9      180.000000        6.983637         2    ;  uncertainty k = 0.869640
        20        19        25        24     9        0.000000        0.325219         3    ;  uncertainty k = 0.349953
        20        19        25        24     9      180.000000        1.307286         4    ;  uncertainty k = 0.335099
        20        19        25        26     9        0.000000        0.337460         1    ;  uncertainty k = 0.391009
        20        19        25        26     9      180.000000       10.376661         2    ;  uncertainty k = 0.372710
        20        19        25        26     9        0.000000        1.330823         3    ;  uncertainty k = 0.417773
        20        19        25        26     9      180.000000        1.431413         4    ;  uncertainty k = 0.199546
        20        22        23        24     9        0.000000       -0.033963         1    ;  uncertainty k = 0.110226
        20        22        23        24     9      180.000000       13.984025         2    ;  uncertainty k = 0.340845
        20        22        23        24     9        0.000000       -1.042557         3    ;  uncertainty k = 0.357764
        20        22        23        24     9      180.000000        0.802609         4    ;  uncertainty k = 0.247483
        20        22        23        47     9        0.000000       -0.104379         1    ;  uncertainty k = 0.141872
        20        22        23        47     9      180.000000        7.264410         2    ;  uncertainty k = 0.340044
        20        22        23        47     9        0.000000        1.287730         3    ;  uncertainty k = 0.202339
        20        22        23        47     9      180.000000        1.653500         4    ;  uncertainty k = 0.150967
        21        20        19        25     9        0.000000        0.033254         1    ;  uncertainty k = 0.304862
        21        20        19        25     9      180.000000       11.302610         2    ;  uncertainty k = 0.302059
        21        20        19        25     9        0.000000        1.679241         3    ;  uncertainty k = 0.164696
        21        20        19        25     9      180.000000        1.555515         4    ;  uncertainty k = 0.157671
        21        20        22        23     9        0.000000       -0.080232         1    ;  uncertainty k = 0.461474
        21        20        22        23     9      180.000000       13.203682         2    ;  uncertainty k = 0.340325
        21        20        22        23     9        0.000000        1.295972         3    ;  uncertainty k = 0.165134
        21        20        22        23     9      180.000000        1.523069         4    ;  uncertainty k = 0.233966
        21        20        22        46     9        0.000000       -0.128834         1    ;  uncertainty k = 0.456012
        21        20        22        46     9      180.000000        9.556552         2    ;  uncertainty k = 0.491147
        21        20        22        46     9        0.000000        0.767278         3    ;  uncertainty k = 0.273034
        21        20        22        46     9      180.000000        1.024642         4    ;  uncertainty k = 0.200947
        22        20        19        25     9        0.000000       -0.325541         1    ;  uncertainty k = 0.355388
        22        20        19        25     9      180.000000        6.052960         2    ;  uncertainty k = 0.864094
        22        20        19        25     9        0.000000        0.684668         3    ;  uncertainty k = 0.181781
        22        20        19        25     9      180.000000        1.492448         4    ;  uncertainty k = 0.353261
        22        23        24        25     9        0.000000       -0.096416         1    ;  uncertainty k = 0.180639
        22        23        24        25     9      180.000000       13.532949         2    ;  uncertainty k = 0.268821
        22        23        24        25     9        0.000000       -0.934273         3    ;  uncertainty k = 0.410646
        22        23        24        25     9      180.000000        0.824229         4    ;  uncertainty k = 0.239882
        22        23        24        48     9        0.000000        0.090918         1    ;  uncertainty k = 0.138952
        22        23        24        48     9      180.000000        7.803070         2    ;  uncertainty k = 0.340548
        22        23        24        48     9        0.000000        1.340932         3    ;  uncertainty k = 0.288750
        22        23        24        48     9      180.000000        1.895629         4    ;  uncertainty k = 0.190611
        23        24        25        26     9        0.000000        0.460449         1    ;  uncertainty k = 0.322983
        23        24        25        26     9      180.000000       11.387678         2    ;  uncertainty k = 0.346993
        23        24        25        26     9        0.000000        0.982542         3    ;  uncertainty k = 0.164036
        23        24        25        26     9      180.000000        1.624026         4    ;  uncertainty k = 0.138288
        24        23        22        46     9        0.000000        0.058868         1    ;  uncertainty k = 0.276257
        24        23        22        46     9      180.000000        7.716329         2    ;  uncertainty k = 0.326791
        24        23        22        46     9        0.000000        1.437490         3    ;  uncertainty k = 0.272563
        24        23        22        46     9      180.000000        1.759669         4    ;  uncertainty k = 0.126329
        24        25        26        27     9        0.000000        2.394481         1    ;  uncertainty k = 0.740964
        24        25        26        27     9      180.000000        4.329586         2    ;  uncertainty k = 0.263950
        24        25        26        27     9        0.000000        0.391713         3    ;  uncertainty k = 0.190597
        24        25        26        27     9      180.000000        0.083730         4    ;  uncertainty k = 0.150415
        24        25        26        30     9        0.000000        2.394481         1    ;  uncertainty k = 0.740964
        24        25        26        30     9      180.000000        4.329586         2    ;  uncertainty k = 0.263950
        24        25        26        30     9        0.000000        0.391713         3    ;  uncertainty k = 0.190597
        24        25        26        30     9      180.000000        0.083730         4    ;  uncertainty k = 0.150415
        25        24        23        47     9        0.000000       -0.010723         1    ;  uncertainty k = 0.237400
        25        24        23        47     9      180.000000        7.958978         2    ;  uncertainty k = 0.442749
        25        24        23        47     9        0.000000        1.209101         3    ;  uncertainty k = 0.164443
        25        24        23        47     9      180.000000        1.723739         4    ;  uncertainty k = 0.144208
        25        26        27        28     9        0.000000        0.797559         1    ;  uncertainty k = 2.309877
        25        26        27        28     9      180.000000       14.114446         2    ;  uncertainty k = 0.418682
        25        26        27        28     9        0.000000        1.402880         3    ;  uncertainty k = 0.442527
        25        26        27        28     9      180.000000        0.112613         4    ;  uncertainty k = 0.206946
        25        26        30        29     9        0.000000        0.797559         1    ;  uncertainty k = 2.309877
        25        26        30        29     9      180.000000       14.114446         2    ;  uncertainty k = 0.418682
        25        26        30        29     9        0.000000        1.402880         3    ;  uncertainty k = 0.442527
        25        26        30        29     9      180.000000        0.112613         4    ;  uncertainty k = 0.206946
        26        25        24        48     9        0.000000        0.135211         1    ;  uncertainty k = 0.398577
        26        25        24        48     9      180.000000        8.519176         2    ;  uncertainty k = 0.273746
        26        25        24        48     9        0.000000        0.803950         3    ;  uncertainty k = 0.224881
        26        25        24        48     9      180.000000        1.348903         4    ;  uncertainty k = 0.152778
        26        27        28        29     9        0.000000        0.015899         1    ;  uncertainty k = 0.518603
        26        27        28        29     9      180.000000       24.370143         2    ;  uncertainty k = 0.366584
        26        27        28        29     9        0.000000       -9.715998         3    ;  uncertainty k = 1.915613
        26        27        28        29     9      180.000000        2.426696         4    ;  uncertainty k = 0.655510
        26        27        28        49     9        0.000000        0.232294         1    ;  uncertainty k = 0.741580
        26        27        28        49     9      180.000000       22.028694         2    ;  uncertainty k = 0.487024
        26        27        28        49     9        0.000000        1.455895         3    ;  uncertainty k = 0.397708
        26        27        28        49     9      180.000000        1.220382         4    ;  uncertainty k = 0.604170
        26        30        29        28     9        0.000000        0.015899         1    ;  uncertainty k = 0.518603
        26        30        29        28     9      180.000000       24.370143         2    ;  uncertainty k = 0.366584
        26        30        29        28     9        0.000000       -9.715998         3    ;  uncertainty k = 1.915613
        26        30        29        28     9      180.000000        2.426696         4    ;  uncertainty k = 0.655510
        26        30        29        50     9        0.000000        0.232294         1    ;  uncertainty k = 0.741580
        26        30        29        50     9      180.000000       22.028694         2    ;  uncertainty k = 0.487024
        26        30        29        50     9        0.000000        1.455895         3    ;  uncertainty k = 0.397708
        26        30        29        50     9      180.000000        1.220382         4    ;  uncertainty k = 0.604170
        27        26        30        29     9        0.000000       -0.822391         1    ;  uncertainty k = 0.769863
        27        26        30        29     9      180.000000       22.038729         2    ;  uncertainty k = 0.271382
        27        26        30        29     9        0.000000       -8.305140         3    ;  uncertainty k = 1.269833
        27        26        30        29     9      180.000000        1.298759         4    ;  uncertainty k = 0.596553
        27        28        29        30     9        0.000000       -0.480158         1    ;  uncertainty k = 0.926462
        27        28        29        30     9      180.000000       16.735216         2    ;  uncertainty k = 1.309662
        27        28        29        30     9        0.000000      -12.155219         3    ;  uncertainty k = 1.939945
        27        28        29        30     9      180.000000        1.991293         4    ;  uncertainty k = 0.750423
        27        28        29        50     9        0.000000        0.154897         1    ;  uncertainty k = 0.970262
        27        28        29        50     9      180.000000       11.842300         2    ;  uncertainty k = 0.614370
        27        28        29        50     9        0.000000        0.922189         3    ;  uncertainty k = 0.757887
        27        28        29        50     9      180.000000        0.630945         4    ;  uncertainty k = 0.172002
        28        27        26        30     9        0.000000       -0.822391         1    ;  uncertainty k = 0.769863
        28        27        26        30     9      180.000000       22.038729         2    ;  uncertainty k = 0.271382
        28        27        26        30     9        0.000000       -8.305140         3    ;  uncertainty k = 1.269833
        28        27        26        30     9      180.000000        1.298759         4    ;  uncertainty k = 0.596553
        30        29        28        49     9        0.000000        0.154897         1    ;  uncertainty k = 0.970262
        30        29        28        49     9      180.000000       11.842300         2    ;  uncertainty k = 0.614370
        30        29        28        49     9        0.000000        0.922189         3    ;  uncertainty k = 0.757887
        30        29        28        49     9      180.000000        0.630945         4    ;  uncertainty k = 0.172002
        34         4         5        35     9        0.000000       -0.375694         1    ;  uncertainty k = 0.285294
        34         4         5        35     9      180.000000        6.671309         2    ;  uncertainty k = 0.202242
        34         4         5        35     9        0.000000        0.099788         3    ;  uncertainty k = 0.234900
        34         4         5        35     9      180.000000        0.371832         4    ;  uncertainty k = 0.131011
        36        10        11        38     9        0.000000        0.359872         1    ;  uncertainty k = 0.316166
        36        10        11        38     9      180.000000       -0.360044         2    ;  uncertainty k = 0.197279
        36        10        11        38     9        0.000000        0.364903         3    ;  uncertainty k = 0.128583
        36        10        11        38     9      180.000000       -0.036803         4    ;  uncertainty k = 0.081429
        37        10        11        38     9        0.000000        0.359872         1    ;  uncertainty k = 0.316166
        37        10        11        38     9      180.000000       -0.360044         2    ;  uncertainty k = 0.197279
        37        10        11        38     9        0.000000        0.364903         3    ;  uncertainty k = 0.128583
        37        10        11        38     9      180.000000       -0.036803         4    ;  uncertainty k = 0.081429
        38        11        12        39     9        0.000000        0.423998         1    ;  uncertainty k = 0.297943
        38        11        12        39     9      180.000000       -0.322771         2    ;  uncertainty k = 0.253711
        38        11        12        39     9        0.000000        0.343158         3    ;  uncertainty k = 0.128710
        38        11        12        39     9      180.000000       -0.041305         4    ;  uncertainty k = 0.061986
        38        11        12        40     9        0.000000        0.423998         1    ;  uncertainty k = 0.297943
        38        11        12        40     9      180.000000       -0.322771         2    ;  uncertainty k = 0.253711
        38        11        12        40     9        0.000000        0.343158         3    ;  uncertainty k = 0.128710
        38        11        12        40     9      180.000000       -0.041305         4    ;  uncertainty k = 0.061986
        38        11        15        43     9        0.000000        3.534566         1    ;  uncertainty k = 1.183407
        38        11        15        43     9      180.000000       -0.219654         2    ;  uncertainty k = 0.641097
        38        11        15        43     9        0.000000        0.578188         3    ;  uncertainty k = 0.579178
        38        11        15        43     9      180.000000        0.212498         4    ;  uncertainty k = 0.291708
        41        14        15        43     9        0.000000        0.424000         1    ;  uncertainty k = 0.297943
        41        14        15        43     9      180.000000       -0.322771         2    ;  uncertainty k = 0.253710
        41        14        15        43     9        0.000000        0.343158         3    ;  uncertainty k = 0.128710
        41        14        15        43     9      180.000000       -0.041305         4    ;  uncertainty k = 0.061986
        42        14        15        43     9        0.000000        0.424000         1    ;  uncertainty k = 0.297943
        42        14        15        43     9      180.000000       -0.322771         2    ;  uncertainty k = 0.253710
        42        14        15        43     9        0.000000        0.343158         3    ;  uncertainty k = 0.128710
        42        14        15        43     9      180.000000       -0.041305         4    ;  uncertainty k = 0.061986
        43        15        16        44     9        0.000000        0.359873         1    ;  uncertainty k = 0.316165
        43        15        16        44     9      180.000000       -0.360044         2    ;  uncertainty k = 0.197281
        43        15        16        44     9        0.000000        0.364903         3    ;  uncertainty k = 0.128582
        43        15        16        44     9      180.000000       -0.036803         4    ;  uncertainty k = 0.081429
        43        15        16        45     9        0.000000        0.359873         1    ;  uncertainty k = 0.316165
        43        15        16        45     9      180.000000       -0.360044         2    ;  uncertainty k = 0.197281
        43        15        16        45     9        0.000000        0.364903         3    ;  uncertainty k = 0.128582
        43        15        16        45     9      180.000000       -0.036803         4    ;  uncertainty k = 0.081429
        46        22        23        47     9        0.000000       -0.020811         1    ;  uncertainty k = 0.168739
        46        22        23        47     9      180.000000        7.628630         2    ;  uncertainty k = 0.494067
        46        22        23        47     9        0.000000       -0.419007         3    ;  uncertainty k = 0.338955
        46        22        23        47     9      180.000000        0.009969         4    ;  uncertainty k = 0.203192
        47        23        24        48     9        0.000000        0.041837         1    ;  uncertainty k = 0.123335
        47        23        24        48     9      180.000000        7.941958         2    ;  uncertainty k = 0.372063
        47        23        24        48     9        0.000000       -0.460822         3    ;  uncertainty k = 0.327229
        47        23        24        48     9      180.000000        0.152785         4    ;  uncertainty k = 0.182743
        49        28        29        50     9        0.000000       -0.942648         1    ;  uncertainty k = 1.117582
        49        28        29        50     9      180.000000        4.272735         2    ;  uncertainty k = 0.760818
        49        28        29        50     9        0.000000        1.314863         3    ;  uncertainty k = 0.353594
        49        28        29        50     9      180.000000        0.150448         4    ;  uncertainty k = 0.159865

[ dihedrals ] ; impropers
;       ai        aj        ak        al funct           phase               k        pn
         3         2         4         8     4      180.000000       34.278169         2    ;  uncertainty k = 0.056873
         3         4         8         2     4      180.000000       34.278169         2    ;  uncertainty k = 0.056873
         3         8         2         4     4      180.000000       34.278169         2    ;  uncertainty k = 0.056873
         4         3         5        34     4      180.000000        0.535317         2    ;  uncertainty k = 0.604215
         4         5        34         3     4      180.000000        0.535317         2    ;  uncertainty k = 0.604215
         4        34         3         5     4      180.000000        0.535317         2    ;  uncertainty k = 0.604215
         5         4         6        35     4      180.000000       17.333997         2    ;  uncertainty k = 0.070653
         5         6        35         4     4      180.000000       17.333997         2    ;  uncertainty k = 0.070653
         5        35         4         6     4      180.000000       17.333997         2    ;  uncertainty k = 0.070653
         7         6         8         9     4      180.000000       42.869805         2    ;  uncertainty k = 0.052871
         7         8         9         6     4      180.000000       42.869805         2    ;  uncertainty k = 0.052871
         7         9         6         8     4      180.000000       42.869805         2    ;  uncertainty k = 0.052871
         9         7        10        16     4      180.000000        0.222584         2    ;  uncertainty k = 0.318801
         9        10        16         7     4      180.000000        0.222584         2    ;  uncertainty k = 0.318801
         9        16         7        10     4      180.000000        0.222584         2    ;  uncertainty k = 0.318801
        17        13        18        19     4      180.000000       52.212280         2    ;  uncertainty k = 0.071533
        17        18        19        13     4      180.000000       52.212280         2    ;  uncertainty k = 0.071533
        17        19        13        18     4      180.000000       52.212280         2    ;  uncertainty k = 0.071533
        19        17        20        25     4      180.000000        9.307072         2    ;  uncertainty k = 0.434424
        19        20        25        17     4      180.000000        9.307072         2    ;  uncertainty k = 0.434424
        19        25        17        20     4      180.000000        9.307072         2    ;  uncertainty k = 0.434424
        20        19        21        22     4      180.000000       15.115266         2    ;  uncertainty k = 0.210077
        20        21        22        19     4      180.000000       15.115266         2    ;  uncertainty k = 0.210077
        20        22        19        21     4      180.000000       15.115266         2    ;  uncertainty k = 0.210077
        22        20        23        46     4      180.000000        2.461870         2    ;  uncertainty k = 0.103991
        22        23        46        20     4      180.000000        2.461870         2    ;  uncertainty k = 0.103991
        22        46        20        23     4      180.000000        2.461870         2    ;  uncertainty k = 0.103991
        23        22        24        47     4      180.000000        4.937369         2    ;  uncertainty k = 0.112088
        23        24        47        22     4      180.000000        4.937369         2    ;  uncertainty k = 0.112088
        23        47        22        24     4      180.000000        4.937369         2    ;  uncertainty k = 0.112088
        24        23        25        48     4      180.000000        2.847064         2    ;  uncertainty k = 0.193191
        24        25        48        23     4      180.000000        2.847064         2    ;  uncertainty k = 0.193191
        24        48        23        25     4      180.000000        2.847064         2    ;  uncertainty k = 0.193191
        25        19        24        26     4      180.000000       12.584197         2    ;  uncertainty k = 0.129690
        25        24        26        19     4      180.000000       12.584197         2    ;  uncertainty k = 0.129690
        25        26        19        24     4      180.000000       12.584197         2    ;  uncertainty k = 0.129690
        28        27        29        49     4      180.000000        0.414726         2    ;  uncertainty k = 0.408832
        28        29        49        27     4      180.000000        0.414726         2    ;  uncertainty k = 0.408832
        28        49        27        29     4      180.000000        0.414726         2    ;  uncertainty k = 0.408832
        29        28        30        50     4      180.000000        0.414726         2    ;  uncertainty k = 0.408832
        29        30        50        28     4      180.000000        0.414726         2    ;  uncertainty k = 0.408832
        29        50        28        30     4      180.000000        0.414726         2    ;  uncertainty k = 0.408832

[ pairs ]
;       ai        aj funct
         1         4     1
         1         8     1
         2         5     1
         2         7     1
         2        34     1
         3         6     1
         3         9     1
         3        31     1
         3        32     1
         3        33     1
         3        35     1
         4         7     1
         5         8     1
         5         9     1
         6        10     1
         6        16     1
         6        34     1
         7        11     1
         7        15     1
         7        35     1
         7        36     1
         7        37     1
         7        44     1
         7        45     1
         8        10     1
         8        16     1
         8        34     1
         9        12     1
         9        14     1
         9        38     1
         9        43     1
        10        13     1
        10        14     1
        10        39     1
        10        40     1
        10        43     1
        10        44     1
        10        45     1
        11        17     1
        11        41     1
        11        42     1
        11        44     1
        11        45     1
        12        16     1
        12        18     1
        12        19     1
        12        36     1
        12        37     1
        12        41     1
        12        42     1
        12        43     1
        13        16     1
        13        20     1
        13        25     1
        13        38     1
        13        43     1
        14        18     1
        14        19     1
        14        38     1
        14        39     1
        14        40     1
        14        44     1
        14        45     1
        15        17     1
        15        36     1
        15        37     1
        15        39     1
        15        40     1
        16        36     1
        16        37     1
        16        38     1
        16        41     1
        16        42     1
        17        21     1
        17        22     1
        17        24     1
        17        26     1
        17        39     1
        17        40     1
        17        41     1
        17        42     1
        18        20     1
        18        25     1
        19        23     1
        19        27     1
        19        30     1
        19        46     1
        19        48     1
        20        24     1
        20        26     1
        20        47     1
        21        23     1
        21        25     1
        21        46     1
        22        25     1
        22        48     1
        23        26     1
        24        27     1
        24        30     1
        24        46     1
        25        28     1
        25        29     1
        25        47     1
        26        48     1
        26        49     1
        26        50     1
        27        50     1
        30        49     1
        34        35     1
        36        38     1
        37        38     1
        38        39     1
        38        40     1
        38        43     1
        41        43     1
        42        43     1
        43        44     1
        43        45     1
        46        47     1
        47        48     1
        49        50     1
