; ITP file created by ByteFF-joint-25, 2025-07-14 11:28:29.364189

[ atomtypes ]
;name           bonded.type        at.num        mass        charge   ptype           sigma         epsilon
 c0bf                                   6      0.0000       0.00000       A     3.39773e-01     4.50930e-01    ;  uncertainty sigma = 0.000007, epsilon = 0.000592
 c1bf                                   6      0.0000       0.00000       A     3.31507e-01     4.13101e-01    ;  uncertainty sigma = 0.000011, epsilon = 0.000572
 c2bf                                   6      0.0000       0.00000       A     3.31517e-01     4.13110e-01    ;  uncertainty sigma = 0.000014, epsilon = 0.000676
 c3bf                                   6      0.0000       0.00000       A     3.31552e-01     4.13219e-01    ;  uncertainty sigma = 0.000027, epsilon = 0.001084
 n4bf                                   7      0.0000       0.00000       A     3.38429e-01     3.93079e-01    ;  uncertainty sigma = 0.000017, epsilon = 0.000890
 c5bf                                   6      0.0000       0.00000       A     3.31540e-01     4.13247e-01    ;  uncertainty sigma = 0.000019, epsilon = 0.000813
 n6bf                                   7      0.0000       0.00000       A     3.38407e-01     3.93685e-01    ;  uncertainty sigma = 0.000013, epsilon = 0.000791
 n7bf                                   7      0.0000       0.00000       A     3.18950e-01     8.99076e-01    ;  uncertainty sigma = 0.000052, epsilon = 0.003577
 c8bf                                   6      0.0000       0.00000       A     3.39774e-01     4.50953e-01    ;  uncertainty sigma = 0.000012, epsilon = 0.001229
 c9bf                                   6      0.0000       0.00000       A     3.39776e-01     4.51373e-01    ;  uncertainty sigma = 0.000009, epsilon = 0.000969
 c10bf                                  6      0.0000       0.00000       A     3.39784e-01     4.51219e-01    ;  uncertainty sigma = 0.000006, epsilon = 0.000696
 n11bf                                  7      0.0000       0.00000       A     3.18086e-01     6.84039e-01    ;  uncertainty sigma = 0.000014, epsilon = 0.001467
 c12bf                                  6      0.0000       0.00000       A     3.39784e-01     4.51219e-01    ;  uncertainty sigma = 0.000006, epsilon = 0.000696
 c13bf                                  6      0.0000       0.00000       A     3.39776e-01     4.51373e-01    ;  uncertainty sigma = 0.000009, epsilon = 0.000969
 c14bf                                  6      0.0000       0.00000       A     3.39774e-01     4.50953e-01    ;  uncertainty sigma = 0.000012, epsilon = 0.001229
 c15bf                                  6      0.0000       0.00000       A     3.31486e-01     4.13134e-01    ;  uncertainty sigma = 0.000026, epsilon = 0.002146
 o16bf                                  8      0.0000       0.00000       A     3.04851e-01     6.12019e-01    ;  uncertainty sigma = 0.000026, epsilon = 0.001020
 c17bf                                  6      0.0000       0.00000       A     3.31488e-01     4.12415e-01    ;  uncertainty sigma = 0.000034, epsilon = 0.001171
 c18bf                                  6      0.0000       0.00000       A     3.31513e-01     4.12834e-01    ;  uncertainty sigma = 0.000016, epsilon = 0.001291
 f19bf                                  9      0.0000       0.00000       A     3.03451e-01     3.47872e-01    ;  uncertainty sigma = 0.000029, epsilon = 0.000470
 c20bf                                  6      0.0000       0.00000       A     3.31522e-01     4.13335e-01    ;  uncertainty sigma = 0.000005, epsilon = 0.000662
 c21bf                                  6      0.0000       0.00000       A     3.31521e-01     4.13421e-01    ;  uncertainty sigma = 0.000006, epsilon = 0.000781
 c22bf                                  6      0.0000       0.00000       A     3.31510e-01     4.13240e-01    ;  uncertainty sigma = 0.000014, epsilon = 0.000923
 c23bf                                  6      0.0000       0.00000       A     3.31553e-01     4.13601e-01    ;  uncertainty sigma = 0.000013, epsilon = 0.001582
 n24bf                                  7      0.0000       0.00000       A     3.20569e-01     8.54049e-01    ;  uncertainty sigma = 0.000030, epsilon = 0.002792
 n25bf                                  7      0.0000       0.00000       A     3.38413e-01     3.93694e-01    ;  uncertainty sigma = 0.000010, epsilon = 0.000693
 c26bf                                  6      0.0000       0.00000       A     3.31537e-01     4.13587e-01    ;  uncertainty sigma = 0.000007, epsilon = 0.000835
 c27bf                                  6      0.0000       0.00000       A     3.31537e-01     4.13587e-01    ;  uncertainty sigma = 0.000007, epsilon = 0.000835
 n28bf                                  7      0.0000       0.00000       A     3.38413e-01     3.93694e-01    ;  uncertainty sigma = 0.000010, epsilon = 0.000693
 c29bf                                  6      0.0000       0.00000       A     3.39768e-01     4.51282e-01    ;  uncertainty sigma = 0.000016, epsilon = 0.001704
 c30bf                                  6      0.0000       0.00000       A     3.39780e-01     4.50872e-01    ;  uncertainty sigma = 0.000009, epsilon = 0.000515
 c31bf                                  6      0.0000       0.00000       A     3.39780e-01     4.50872e-01    ;  uncertainty sigma = 0.000009, epsilon = 0.000515
 c32bf                                  6      0.0000       0.00000       A     3.39780e-01     4.50872e-01    ;  uncertainty sigma = 0.000009, epsilon = 0.000515
 h33bf                                  1      0.0000       0.00000       A     2.60034e-01     8.66332e-02    ;  uncertainty sigma = 0.000007, epsilon = 0.000537
 h34bf                                  1      0.0000       0.00000       A     2.60034e-01     8.66332e-02    ;  uncertainty sigma = 0.000007, epsilon = 0.000537
 h35bf                                  1      0.0000       0.00000       A     2.60034e-01     8.66332e-02    ;  uncertainty sigma = 0.000007, epsilon = 0.000537
 h36bf                                  1      0.0000       0.00000       A     2.62555e-01     6.70003e-02    ;  uncertainty sigma = 0.000018, epsilon = 0.000427
 h37bf                                  1      0.0000       0.00000       A     2.42199e-01     8.66324e-02    ;  uncertainty sigma = 0.000024, epsilon = 0.001250
 h38bf                                  1      0.0000       0.00000       A     2.42199e-01     8.66324e-02    ;  uncertainty sigma = 0.000024, epsilon = 0.001250
 h39bf                                  1      0.0000       0.00000       A     2.59994e-01     8.68892e-02    ;  uncertainty sigma = 0.000026, epsilon = 0.000553
 h40bf                                  1      0.0000       0.00000       A     2.42194e-01     8.66543e-02    ;  uncertainty sigma = 0.000021, epsilon = 0.000863
 h41bf                                  1      0.0000       0.00000       A     2.42194e-01     8.66543e-02    ;  uncertainty sigma = 0.000021, epsilon = 0.000863
 h42bf                                  1      0.0000       0.00000       A     2.42194e-01     8.66545e-02    ;  uncertainty sigma = 0.000021, epsilon = 0.000863
 h43bf                                  1      0.0000       0.00000       A     2.42194e-01     8.66545e-02    ;  uncertainty sigma = 0.000021, epsilon = 0.000863
 h44bf                                  1      0.0000       0.00000       A     2.59994e-01     8.68892e-02    ;  uncertainty sigma = 0.000026, epsilon = 0.000553
 h45bf                                  1      0.0000       0.00000       A     2.42199e-01     8.66324e-02    ;  uncertainty sigma = 0.000024, epsilon = 0.001250
 h46bf                                  1      0.0000       0.00000       A     2.42199e-01     8.66324e-02    ;  uncertainty sigma = 0.000024, epsilon = 0.001250
 h47bf                                  1      0.0000       0.00000       A     2.62565e-01     6.70682e-02    ;  uncertainty sigma = 0.000010, epsilon = 0.000430
 h48bf                                  1      0.0000       0.00000       A     2.62565e-01     6.69658e-02    ;  uncertainty sigma = 0.000011, epsilon = 0.000532
 h49bf                                  1      0.0000       0.00000       A     2.62555e-01     6.71502e-02    ;  uncertainty sigma = 0.000013, epsilon = 0.000465
 h50bf                                  1      0.0000       0.00000       A     2.53604e-01     6.70805e-02    ;  uncertainty sigma = 0.000028, epsilon = 0.000600
 h51bf                                  1      0.0000       0.00000       A     2.53604e-01     6.70805e-02    ;  uncertainty sigma = 0.000028, epsilon = 0.000600
 h52bf                                  1      0.0000       0.00000       A     2.60028e-01     8.66523e-02    ;  uncertainty sigma = 0.000008, epsilon = 0.000312
 h53bf                                  1      0.0000       0.00000       A     2.60028e-01     8.66523e-02    ;  uncertainty sigma = 0.000008, epsilon = 0.000312
 h54bf                                  1      0.0000       0.00000       A     2.60028e-01     8.66523e-02    ;  uncertainty sigma = 0.000008, epsilon = 0.000312
 h55bf                                  1      0.0000       0.00000       A     2.60028e-01     8.66523e-02    ;  uncertainty sigma = 0.000008, epsilon = 0.000312
 h56bf                                  1      0.0000       0.00000       A     2.60028e-01     8.66523e-02    ;  uncertainty sigma = 0.000008, epsilon = 0.000312
 h57bf                                  1      0.0000       0.00000       A     2.60028e-01     8.66523e-02    ;  uncertainty sigma = 0.000008, epsilon = 0.000312
 h58bf                                  1      0.0000       0.00000       A     2.60028e-01     8.66523e-02    ;  uncertainty sigma = 0.000008, epsilon = 0.000312
 h59bf                                  1      0.0000       0.00000       A     2.60028e-01     8.66523e-02    ;  uncertainty sigma = 0.000008, epsilon = 0.000312
 h60bf                                  1      0.0000       0.00000       A     2.60028e-01     8.66525e-02    ;  uncertainty sigma = 0.000008, epsilon = 0.000312

[ moleculetype ]
;name             nrexcl
 MOL                   3

[ atoms ]
;       nr            type      resi   res      atom      cgnr      charge          mass ; qtot
         1            c0bf         1   UNL        c0         1    -0.15157       12.0110 ; qtot   -0.152
         2            c1bf         1   UNL        c1         2     0.48602       12.0110 ; qtot    0.334
         3            c2bf         1   UNL        c2         3    -0.40394       12.0110 ; qtot   -0.069
         4            c3bf         1   UNL        c3         4     0.50002       12.0110 ; qtot    0.431
         5            n4bf         1   UNL        n4         5    -0.78189       14.0070 ; qtot   -0.351
         6            c5bf         1   UNL        c5         6     0.90958       12.0110 ; qtot    0.558
         7            n6bf         1   UNL        n6         7    -0.77723       14.0070 ; qtot   -0.219
         8            n7bf         1   UNL        n7         8    -0.79111       14.0070 ; qtot   -1.010
         9            c8bf         1   UNL        c8         9     0.23390       12.0110 ; qtot   -0.776
        10            c9bf         1   UNL        c9        10    -0.09743       12.0110 ; qtot   -0.874
        11           c10bf         1   UNL       c10        11     0.11057       12.0110 ; qtot   -0.763
        12           n11bf         1   UNL       n11        12    -0.47239       14.0070 ; qtot   -1.235
        13           c12bf         1   UNL       c12        13     0.11057       12.0110 ; qtot   -1.125
        14           c13bf         1   UNL       c13        14    -0.09743       12.0110 ; qtot   -1.222
        15           c14bf         1   UNL       c14        15     0.23390       12.0110 ; qtot   -0.988
        16           c15bf         1   UNL       c15        16     0.70764       12.0110 ; qtot   -0.281
        17           o16bf         1   UNL       o16        17    -0.58293       15.9990 ; qtot   -0.864
        18           c17bf         1   UNL       c17        18    -0.15596       12.0110 ; qtot   -1.020
        19           c18bf         1   UNL       c18        19     0.16292       12.0110 ; qtot   -0.857
        20           f19bf         1   UNL       f19        20    -0.13494       18.9980 ; qtot   -0.992
        21           c20bf         1   UNL       c20        21    -0.15817       12.0110 ; qtot   -1.150
        22           c21bf         1   UNL       c21        22    -0.08197       12.0110 ; qtot   -1.232
        23           c22bf         1   UNL       c22        23    -0.13048       12.0110 ; qtot   -1.362
        24           c23bf         1   UNL       c23        24     0.07222       12.0110 ; qtot   -1.290
        25           n24bf         1   UNL       n24        25     0.30201       14.0070 ; qtot   -0.988
        26           n25bf         1   UNL       n25        26    -0.47243       14.0070 ; qtot   -1.461
        27           c26bf         1   UNL       c26        27     0.20275       12.0110 ; qtot   -1.258
        28           c27bf         1   UNL       c27        28     0.20275       12.0110 ; qtot   -1.055
        29           n28bf         1   UNL       n28        29    -0.47243       14.0070 ; qtot   -1.527
        30           c29bf         1   UNL       c29        30    -0.09645       12.0110 ; qtot   -1.624
        31           c30bf         1   UNL       c30        31    -0.08036       12.0110 ; qtot   -1.704
        32           c31bf         1   UNL       c31        32    -0.08036       12.0110 ; qtot   -1.785
        33           c32bf         1   UNL       c32        33    -0.08036       12.0110 ; qtot   -1.865
        34           h33bf         1   UNL       h33        34     0.05868        1.0080 ; qtot   -1.806
        35           h34bf         1   UNL       h34        35     0.05868        1.0080 ; qtot   -1.748
        36           h35bf         1   UNL       h35        36     0.05868        1.0080 ; qtot   -1.689
        37           h36bf         1   UNL       h36        37     0.15444        1.0080 ; qtot   -1.534
        38           h37bf         1   UNL       h37        38     0.05891        1.0080 ; qtot   -1.476
        39           h38bf         1   UNL       h38        39     0.05891        1.0080 ; qtot   -1.417
        40           h39bf         1   UNL       h39        40     0.07237        1.0080 ; qtot   -1.344
        41           h40bf         1   UNL       h40        41     0.05981        1.0080 ; qtot   -1.284
        42           h41bf         1   UNL       h41        42     0.05981        1.0080 ; qtot   -1.225
        43           h42bf         1   UNL       h42        43     0.05981        1.0080 ; qtot   -1.165
        44           h43bf         1   UNL       h43        44     0.05981        1.0080 ; qtot   -1.105
        45           h44bf         1   UNL       h44        45     0.07237        1.0080 ; qtot   -1.033
        46           h45bf         1   UNL       h45        46     0.05891        1.0080 ; qtot   -0.974
        47           h46bf         1   UNL       h46        47     0.05891        1.0080 ; qtot   -0.915
        48           h47bf         1   UNL       h47        48     0.15846        1.0080 ; qtot   -0.756
        49           h48bf         1   UNL       h48        49     0.14574        1.0080 ; qtot   -0.611
        50           h49bf         1   UNL       h49        50     0.16350        1.0080 ; qtot   -0.447
        51           h50bf         1   UNL       h50        51     0.05496        1.0080 ; qtot   -0.392
        52           h51bf         1   UNL       h51        52     0.05496        1.0080 ; qtot   -0.337
        53           h52bf         1   UNL       h52        53     0.03748        1.0080 ; qtot   -0.300
        54           h53bf         1   UNL       h53        54     0.03748        1.0080 ; qtot   -0.262
        55           h54bf         1   UNL       h54        55     0.03748        1.0080 ; qtot   -0.225
        56           h55bf         1   UNL       h55        56     0.03748        1.0080 ; qtot   -0.187
        57           h56bf         1   UNL       h56        57     0.03748        1.0080 ; qtot   -0.150
        58           h57bf         1   UNL       h57        58     0.03748        1.0080 ; qtot   -0.112
        59           h58bf         1   UNL       h58        59     0.03748        1.0080 ; qtot   -0.075
        60           h59bf         1   UNL       h59        60     0.03748        1.0080 ; qtot   -0.037
        61           h60bf         1   UNL       h60        61     0.03742        1.0080 ; qtot    0.000

[ bonds ]
;       ai        aj funct               r               k
         1         2     1        0.150632   257739.916016    ;  uncertainty r = 0.000037, k = 5.449550
         1        34     1        0.109444   310537.557666    ;  uncertainty r = 0.000015, k = 1.598098
         1        35     1        0.109444   310537.557666    ;  uncertainty r = 0.000015, k = 1.598098
         1        36     1        0.109444   310537.557666    ;  uncertainty r = 0.000015, k = 1.598098
         2         3     1        0.140325   442611.171582    ;  uncertainty r = 0.000103, k = 7.415181
         2         7     1        0.134206   466142.800684    ;  uncertainty r = 0.000033, k = 8.153411
         3         4     1        0.140575   400257.952295    ;  uncertainty r = 0.000073, k = 11.691735
         3        37     1        0.108732   344500.636279    ;  uncertainty r = 0.000024, k = 3.939983
         4         5     1        0.134280   433720.273730    ;  uncertainty r = 0.000020, k = 10.643510
         4        30     1        0.150535   224487.790527    ;  uncertainty r = 0.000120, k = 9.138895
         5         6     1        0.135780   490054.370898    ;  uncertainty r = 0.000194, k = 12.561472
         6         7     1        0.135388   499444.110645    ;  uncertainty r = 0.000076, k = 15.388305
         6         8     1        0.136822   316518.195459    ;  uncertainty r = 0.000069, k = 19.754584
         8         9     1        0.146381   223708.423486    ;  uncertainty r = 0.000058, k = 14.342742
         8        15     1        0.146381   223708.423486    ;  uncertainty r = 0.000058, k = 14.342733
         9        10     1        0.153378   218045.467334    ;  uncertainty r = 0.000067, k = 7.088220
         9        38     1        0.109551   306518.450781    ;  uncertainty r = 0.000069, k = 2.534282
         9        39     1        0.109551   306518.450781    ;  uncertainty r = 0.000069, k = 2.534282
        10        11     1        0.153480   216617.049121    ;  uncertainty r = 0.000023, k = 7.412723
        10        14     1        0.154451   200722.496875    ;  uncertainty r = 0.000080, k = 20.796785
        10        40     1        0.109350   305021.261133    ;  uncertainty r = 0.000029, k = 3.829702
        11        12     1        0.146976   241154.380664    ;  uncertainty r = 0.000047, k = 15.575172
        11        41     1        0.109439   307434.875488    ;  uncertainty r = 0.000026, k = 1.171544
        11        42     1        0.109439   307434.875488    ;  uncertainty r = 0.000026, k = 1.171544
        12        13     1        0.146976   241154.380664    ;  uncertainty r = 0.000047, k = 15.575144
        12        16     1        0.135088   335723.021045    ;  uncertainty r = 0.000166, k = 15.024462
        13        14     1        0.153480   216617.049121    ;  uncertainty r = 0.000023, k = 7.412681
        13        43     1        0.109439   307434.875488    ;  uncertainty r = 0.000026, k = 1.171521
        13        44     1        0.109439   307434.875488    ;  uncertainty r = 0.000026, k = 1.171521
        14        15     1        0.153378   218045.441797    ;  uncertainty r = 0.000067, k = 7.088228
        14        45     1        0.109350   305021.261133    ;  uncertainty r = 0.000029, k = 3.829660
        15        46     1        0.109551   306518.450781    ;  uncertainty r = 0.000069, k = 2.534287
        15        47     1        0.109551   306518.450781    ;  uncertainty r = 0.000069, k = 2.534287
        16        17     1        0.123492   739384.865723    ;  uncertainty r = 0.000039, k = 10.151716
        16        18     1        0.151093   272101.628809    ;  uncertainty r = 0.000079, k = 31.154098
        18        19     1        0.139399   331888.649609    ;  uncertainty r = 0.000087, k = 16.801357
        18        24     1        0.139529   322378.221484    ;  uncertainty r = 0.000112, k = 6.618765
        19        20     1        0.135284   339697.693359    ;  uncertainty r = 0.000139, k = 6.883764
        19        21     1        0.138876   355374.056543    ;  uncertainty r = 0.000029, k = 4.848304
        21        22     1        0.139230   385818.044873    ;  uncertainty r = 0.000031, k = 3.156029
        21        48     1        0.108754   335743.808252    ;  uncertainty r = 0.000014, k = 1.461762
        22        23     1        0.139117   371572.781299    ;  uncertainty r = 0.000042, k = 2.923689
        22        49     1        0.108705   332118.662354    ;  uncertainty r = 0.000011, k = 1.593644
        23        24     1        0.139176   333973.831201    ;  uncertainty r = 0.000089, k = 2.958672
        23        50     1        0.108623   333131.310889    ;  uncertainty r = 0.000019, k = 1.837628
        24        25     1        0.140554   317671.476855    ;  uncertainty r = 0.000102, k = 8.472881
        25        26     1        0.134456   229486.015723    ;  uncertainty r = 0.000080, k = 10.859863
        25        29     1        0.134456   229486.015723    ;  uncertainty r = 0.000080, k = 10.859863
        26        27     1        0.132965   463550.937305    ;  uncertainty r = 0.000052, k = 7.730519
        27        28     1        0.141781   249584.027246    ;  uncertainty r = 0.000103, k = 15.332668
        27        51     1        0.108418   339910.136572    ;  uncertainty r = 0.000037, k = 1.124302
        28        29     1        0.132965   463550.937305    ;  uncertainty r = 0.000052, k = 7.730519
        28        52     1        0.108418   339910.136572    ;  uncertainty r = 0.000037, k = 1.124302
        30        31     1        0.153394   201025.596826    ;  uncertainty r = 0.000049, k = 5.764063
        30        32     1        0.153394   201025.596826    ;  uncertainty r = 0.000049, k = 5.764063
        30        33     1        0.153394   201025.596826    ;  uncertainty r = 0.000049, k = 5.764063
        31        53     1        0.109631   308899.607471    ;  uncertainty r = 0.000015, k = 1.380490
        31        54     1        0.109631   308899.607471    ;  uncertainty r = 0.000015, k = 1.380490
        31        55     1        0.109631   308899.607471    ;  uncertainty r = 0.000015, k = 1.380490
        32        56     1        0.109631   308899.607471    ;  uncertainty r = 0.000015, k = 1.380490
        32        57     1        0.109631   308899.607471    ;  uncertainty r = 0.000015, k = 1.380490
        32        58     1        0.109631   308899.607471    ;  uncertainty r = 0.000015, k = 1.380490
        33        59     1        0.109631   308899.607471    ;  uncertainty r = 0.000015, k = 1.380490
        33        60     1        0.109631   308899.607471    ;  uncertainty r = 0.000015, k = 1.380490
        33        61     1        0.109631   308899.581934    ;  uncertainty r = 0.000015, k = 1.380490

[ angles ]
;       ai        aj        ak funct           theta             cth
         1         2         3     1      122.208878      416.353456    ;  uncertainty theta = 0.002930, k = 0.191589
         1         2         7     1      118.791794      509.568566    ;  uncertainty theta = 0.002314, k = 0.197408
         2         1        34     1      108.920761      384.603615    ;  uncertainty theta = 0.001394, k = 0.058129
         2         1        35     1      108.920761      384.603615    ;  uncertainty theta = 0.001394, k = 0.058129
         2         1        36     1      108.920761      384.603615    ;  uncertainty theta = 0.001394, k = 0.058129
         2         3         4     1      117.152817      458.201532    ;  uncertainty theta = 0.005489, k = 0.206860
         2         3        37     1      121.481384      278.371315    ;  uncertainty theta = 0.001752, k = 0.086562
         2         7         6     1      115.104736      410.566556    ;  uncertainty theta = 0.005874, k = 0.251377
         3         2         7     1      120.644821      655.386482    ;  uncertainty theta = 0.004841, k = 0.103858
         3         4         5     1      121.704124      639.310871    ;  uncertainty theta = 0.004786, k = 0.117549
         3         4        30     1      122.278442      367.480664    ;  uncertainty theta = 0.005246, k = 0.083466
         4         3        37     1      121.591408      261.440929    ;  uncertainty theta = 0.001967, k = 0.053525
         4         5         6     1      117.298607      400.658764    ;  uncertainty theta = 0.007963, k = 0.300717
         4        30        31     1      106.345215      514.970622    ;  uncertainty theta = 0.003933, k = 0.084741
         4        30        32     1      106.345215      514.970622    ;  uncertainty theta = 0.003933, k = 0.084741
         4        30        33     1      106.345215      514.970622    ;  uncertainty theta = 0.003933, k = 0.084741
         5         4        30     1      116.846008      434.567863    ;  uncertainty theta = 0.008375, k = 0.139410
         5         6         7     1      129.471130      723.508445    ;  uncertainty theta = 0.004682, k = 0.112145
         5         6         8     1      119.751053      569.064157    ;  uncertainty theta = 0.007908, k = 0.170528
         6         8         9     1      113.674904      429.623751    ;  uncertainty theta = 0.003577, k = 0.200947
         6         8        15     1      113.674904      429.623719    ;  uncertainty theta = 0.003577, k = 0.200947
         7         6         8     1      119.660301      553.475603    ;  uncertainty theta = 0.007378, k = 0.192704
         8         9        10     1      105.543358      834.662672    ;  uncertainty theta = 0.001817, k = 0.093259
         8         9        38     1      108.562340      456.415818    ;  uncertainty theta = 0.001202, k = 0.062362
         8         9        39     1      108.562340      456.415818    ;  uncertainty theta = 0.001202, k = 0.062362
         8        15        14     1      105.543358      834.662672    ;  uncertainty theta = 0.001817, k = 0.093260
         8        15        46     1      108.562340      456.415882    ;  uncertainty theta = 0.001202, k = 0.062362
         8        15        47     1      108.562340      456.415882    ;  uncertainty theta = 0.001202, k = 0.062362
         9         8        15     1      112.639450      489.228386    ;  uncertainty theta = 0.009972, k = 0.334405
         9        10        11     1      113.001526      495.885112    ;  uncertainty theta = 0.002967, k = 0.272650
         9        10        14     1      106.407143      696.228300    ;  uncertainty theta = 0.000820, k = 0.121960
         9        10        40     1      108.909218      387.529593    ;  uncertainty theta = 0.002428, k = 0.196423
        10         9        38     1      109.942749      401.681046    ;  uncertainty theta = 0.001744, k = 0.042629
        10         9        39     1      109.942749      401.681046    ;  uncertainty theta = 0.001744, k = 0.042629
        10        11        12     1      106.005104      800.142884    ;  uncertainty theta = 0.002837, k = 0.185313
        10        11        41     1      109.812805      398.157914    ;  uncertainty theta = 0.002056, k = 0.096133
        10        11        42     1      109.812805      398.157914    ;  uncertainty theta = 0.002056, k = 0.096133
        10        14        13     1      106.536072      683.535718    ;  uncertainty theta = 0.002057, k = 0.120116
        10        14        15     1      106.407143      696.228492    ;  uncertainty theta = 0.000820, k = 0.121960
        10        14        45     1      109.787766      408.249925    ;  uncertainty theta = 0.001833, k = 0.098421
        11        10        14     1      106.536072      683.535654    ;  uncertainty theta = 0.002057, k = 0.120117
        11        10        40     1      108.976547      381.109245    ;  uncertainty theta = 0.002391, k = 0.150517
        11        12        13     1      114.311745      540.101883    ;  uncertainty theta = 0.003229, k = 0.142692
        11        12        16     1      117.974327      368.182647    ;  uncertainty theta = 0.003980, k = 0.157584
        12        11        41     1      109.203384      457.892789    ;  uncertainty theta = 0.001598, k = 0.109127
        12        11        42     1      109.203384      457.892789    ;  uncertainty theta = 0.001598, k = 0.109127
        12        13        14     1      106.005104      800.142884    ;  uncertainty theta = 0.002837, k = 0.185312
        12        13        43     1      109.203384      457.892789    ;  uncertainty theta = 0.001598, k = 0.109127
        12        13        44     1      109.203384      457.892789    ;  uncertainty theta = 0.001598, k = 0.109127
        12        16        17     1      124.922256      740.345444    ;  uncertainty theta = 0.002458, k = 0.115631
        12        16        18     1      112.159889      368.733068    ;  uncertainty theta = 0.002788, k = 0.265066
        13        12        16     1      117.974327      368.182647    ;  uncertainty theta = 0.003980, k = 0.157584
        13        14        15     1      113.001526      495.885112    ;  uncertainty theta = 0.002967, k = 0.272650
        13        14        45     1      108.976547      381.109245    ;  uncertainty theta = 0.002391, k = 0.150517
        14        10        40     1      109.787766      408.249925    ;  uncertainty theta = 0.001833, k = 0.098421
        14        13        43     1      109.812805      398.157914    ;  uncertainty theta = 0.002056, k = 0.096133
        14        13        44     1      109.812805      398.157914    ;  uncertainty theta = 0.002056, k = 0.096133
        14        15        46     1      109.942749      401.681014    ;  uncertainty theta = 0.001744, k = 0.042629
        14        15        47     1      109.942749      401.681014    ;  uncertainty theta = 0.001744, k = 0.042629
        15        14        45     1      108.909218      387.529561    ;  uncertainty theta = 0.002428, k = 0.196423
        16        18        19     1      122.644753      394.633059    ;  uncertainty theta = 0.009716, k = 0.281698
        16        18        24     1      121.727440      360.483272    ;  uncertainty theta = 0.007459, k = 0.258991
        17        16        18     1      123.973495      474.716636    ;  uncertainty theta = 0.004986, k = 0.295298
        18        19        20     1      116.293533      481.718082    ;  uncertainty theta = 0.003628, k = 0.151958
        18        19        21     1      125.257851      358.228537    ;  uncertainty theta = 0.006392, k = 0.161234
        18        24        23     1      126.248352      383.964293    ;  uncertainty theta = 0.008470, k = 0.143041
        18        24        25     1      115.625549      424.401189    ;  uncertainty theta = 0.005276, k = 0.425221
        19        18        24     1      120.519875      451.018997    ;  uncertainty theta = 0.010533, k = 0.145475
        19        21        22     1      116.906998      480.293111    ;  uncertainty theta = 0.004692, k = 0.077746
        19        21        48     1      120.257713      280.421849    ;  uncertainty theta = 0.001644, k = 0.051464
        20        19        21     1      119.307655      515.150978    ;  uncertainty theta = 0.004276, k = 0.124646
        21        22        23     1      119.580154      501.480038    ;  uncertainty theta = 0.001152, k = 0.050795
        21        22        49     1      120.085129      283.076623    ;  uncertainty theta = 0.000551, k = 0.029815
        22        21        48     1      122.091469      282.690757    ;  uncertainty theta = 0.001292, k = 0.025850
        22        23        24     1      119.295853      511.815512    ;  uncertainty theta = 0.002200, k = 0.078353
        22        23        50     1      121.511391      292.121324    ;  uncertainty theta = 0.001401, k = 0.054323
        23        22        49     1      119.901108      278.613917    ;  uncertainty theta = 0.000633, k = 0.016225
        23        24        25     1      118.568016      453.799094    ;  uncertainty theta = 0.002843, k = 0.118727
        24        23        50     1      118.140259      263.598991    ;  uncertainty theta = 0.002697, k = 0.141621
        24        25        26     1      116.169716      430.317850    ;  uncertainty theta = 0.006654, k = 0.182017
        24        25        29     1      116.169716      430.317850    ;  uncertainty theta = 0.006654, k = 0.182017
        25        26        27     1      105.336914      920.571231    ;  uncertainty theta = 0.004509, k = 0.170853
        25        29        28     1      105.336914      920.571231    ;  uncertainty theta = 0.004509, k = 0.170853
        26        25        29     1      113.935104     1160.946488    ;  uncertainty theta = 0.004391, k = 0.191360
        26        27        28     1      108.874611      885.375859    ;  uncertainty theta = 0.003815, k = 0.097431
        26        27        51     1      119.790878      274.219077    ;  uncertainty theta = 0.003825, k = 0.115835
        27        28        29     1      108.874611      885.375859    ;  uncertainty theta = 0.003815, k = 0.097431
        27        28        52     1      127.065453      242.460680    ;  uncertainty theta = 0.004115, k = 0.077998
        28        27        51     1      127.065453      242.460680    ;  uncertainty theta = 0.004115, k = 0.077998
        29        28        52     1      119.790878      274.219077    ;  uncertainty theta = 0.003825, k = 0.115835
        30        31        53     1      107.580666      384.178997    ;  uncertainty theta = 0.001473, k = 0.044454
        30        31        54     1      107.580666      384.178997    ;  uncertainty theta = 0.001473, k = 0.044454
        30        31        55     1      107.580666      384.178997    ;  uncertainty theta = 0.001473, k = 0.044454
        30        32        56     1      107.580666      384.178997    ;  uncertainty theta = 0.001473, k = 0.044454
        30        32        57     1      107.580666      384.178997    ;  uncertainty theta = 0.001473, k = 0.044454
        30        32        58     1      107.580666      384.178997    ;  uncertainty theta = 0.001473, k = 0.044454
        30        33        59     1      107.580666      384.179060    ;  uncertainty theta = 0.001473, k = 0.044454
        30        33        60     1      107.580666      384.179060    ;  uncertainty theta = 0.001473, k = 0.044454
        30        33        61     1      107.580666      384.179060    ;  uncertainty theta = 0.001473, k = 0.044454
        31        30        32     1      109.377464      578.036429    ;  uncertainty theta = 0.004021, k = 0.054651
        31        30        33     1      109.377464      578.036429    ;  uncertainty theta = 0.004021, k = 0.054651
        32        30        33     1      109.377464      578.036429    ;  uncertainty theta = 0.004021, k = 0.054651
        34         1        35     1      107.153786      312.530199    ;  uncertainty theta = 0.001242, k = 0.032267
        34         1        36     1      107.153786      312.530199    ;  uncertainty theta = 0.001242, k = 0.032267
        35         1        36     1      107.153786      312.530199    ;  uncertainty theta = 0.001242, k = 0.032267
        38         9        39     1      105.123001      312.324913    ;  uncertainty theta = 0.002382, k = 0.114503
        41        11        42     1      105.371437      309.387890    ;  uncertainty theta = 0.003860, k = 0.079571
        43        13        44     1      105.371437      309.387890    ;  uncertainty theta = 0.003860, k = 0.079571
        46        15        47     1      105.123001      312.324913    ;  uncertainty theta = 0.002382, k = 0.114503
        53        31        54     1      105.364952      318.583547    ;  uncertainty theta = 0.000980, k = 0.009486
        53        31        55     1      105.364952      318.583547    ;  uncertainty theta = 0.000980, k = 0.009486
        54        31        55     1      105.364952      318.583547    ;  uncertainty theta = 0.000980, k = 0.009486
        56        32        57     1      105.364952      318.583547    ;  uncertainty theta = 0.000980, k = 0.009486
        56        32        58     1      105.364952      318.583547    ;  uncertainty theta = 0.000980, k = 0.009486
        57        32        58     1      105.364952      318.583547    ;  uncertainty theta = 0.000980, k = 0.009486
        59        33        60     1      105.364952      318.583547    ;  uncertainty theta = 0.000980, k = 0.009486
        59        33        61     1      105.364952      318.583547    ;  uncertainty theta = 0.000980, k = 0.009486
        60        33        61     1      105.364952      318.583516    ;  uncertainty theta = 0.000980, k = 0.009486

[ dihedrals ] ; propers for gromacs 4.5 or higher, use funct 9
;       ai        aj        ak        al funct           phase               k        pn
         1         2         3         4     9        0.000000       -0.034910         1    ;  uncertainty k = 0.231464
         1         2         3         4     9      180.000000        7.577272         2    ;  uncertainty k = 0.458476
         1         2         3         4     9        0.000000        0.950871         3    ;  uncertainty k = 0.266108
         1         2         3         4     9      180.000000        1.356200         4    ;  uncertainty k = 0.167329
         1         2         3        37     9        0.000000       -0.223152         1    ;  uncertainty k = 0.328714
         1         2         3        37     9      180.000000        6.866384         2    ;  uncertainty k = 0.359277
         1         2         3        37     9        0.000000        0.630449         3    ;  uncertainty k = 0.290293
         1         2         3        37     9      180.000000        0.820083         4    ;  uncertainty k = 0.256981
         1         2         7         6     9        0.000000        0.024620         1    ;  uncertainty k = 1.017280
         1         2         7         6     9      180.000000       15.060809         2    ;  uncertainty k = 0.558738
         1         2         7         6     9        0.000000        2.376649         3    ;  uncertainty k = 0.362522
         1         2         7         6     9      180.000000        1.671387         4    ;  uncertainty k = 0.469733
         2         3         4         5     9        0.000000       -0.225250         1    ;  uncertainty k = 0.412029
         2         3         4         5     9      180.000000       11.285808         2    ;  uncertainty k = 0.579323
         2         3         4         5     9        0.000000       -1.023634         3    ;  uncertainty k = 0.720116
         2         3         4         5     9      180.000000        1.069039         4    ;  uncertainty k = 0.164331
         2         3         4        30     9        0.000000       -0.243730         1    ;  uncertainty k = 0.497753
         2         3         4        30     9      180.000000        6.837726         2    ;  uncertainty k = 0.380098
         2         3         4        30     9        0.000000        0.829568         3    ;  uncertainty k = 0.232984
         2         3         4        30     9      180.000000        1.260326         4    ;  uncertainty k = 0.222541
         2         7         6         5     9        0.000000       -0.367610         1    ;  uncertainty k = 0.821443
         2         7         6         5     9      180.000000        8.783753         2    ;  uncertainty k = 0.730566
         2         7         6         5     9        0.000000        0.737496         3    ;  uncertainty k = 0.649773
         2         7         6         5     9      180.000000        0.759688         4    ;  uncertainty k = 0.180617
         2         7         6         8     9        0.000000        0.506630         1    ;  uncertainty k = 0.982489
         2         7         6         8     9      180.000000       10.577801         2    ;  uncertainty k = 0.472670
         2         7         6         8     9        0.000000        1.708376         3    ;  uncertainty k = 0.335727
         2         7         6         8     9      180.000000        0.991758         4    ;  uncertainty k = 0.134763
         3         2         1        34     9        0.000000       -0.179940         1    ;  uncertainty k = 0.325450
         3         2         1        34     9      180.000000        2.278427         2    ;  uncertainty k = 0.258519
         3         2         1        34     9        0.000000        0.267504         3    ;  uncertainty k = 0.028573
         3         2         1        34     9      180.000000        0.155732         4    ;  uncertainty k = 0.026380
         3         2         1        35     9        0.000000       -0.179940         1    ;  uncertainty k = 0.325450
         3         2         1        35     9      180.000000        2.278427         2    ;  uncertainty k = 0.258519
         3         2         1        35     9        0.000000        0.267504         3    ;  uncertainty k = 0.028573
         3         2         1        35     9      180.000000        0.155732         4    ;  uncertainty k = 0.026380
         3         2         1        36     9        0.000000       -0.179940         1    ;  uncertainty k = 0.325450
         3         2         1        36     9      180.000000        2.278427         2    ;  uncertainty k = 0.258519
         3         2         1        36     9        0.000000        0.267504         3    ;  uncertainty k = 0.028573
         3         2         1        36     9      180.000000        0.155732         4    ;  uncertainty k = 0.026380
         3         2         7         6     9        0.000000       -0.358880         1    ;  uncertainty k = 0.493635
         3         2         7         6     9      180.000000       15.245940         2    ;  uncertainty k = 0.225419
         3         2         7         6     9        0.000000        0.216191         3    ;  uncertainty k = 0.471179
         3         2         7         6     9      180.000000        1.085756         4    ;  uncertainty k = 0.332363
         3         4         5         6     9        0.000000       -0.344054         1    ;  uncertainty k = 0.755943
         3         4         5         6     9      180.000000       14.610520         2    ;  uncertainty k = 0.205262
         3         4         5         6     9        0.000000        0.513735         3    ;  uncertainty k = 0.465168
         3         4         5         6     9      180.000000        1.085439         4    ;  uncertainty k = 0.271847
         3         4        30        31     9        0.000000       -1.260573         1    ;  uncertainty k = 0.291179
         3         4        30        31     9      180.000000        3.405719         2    ;  uncertainty k = 0.161953
         3         4        30        31     9        0.000000        0.126539         3    ;  uncertainty k = 0.145012
         3         4        30        31     9      180.000000        0.316733         4    ;  uncertainty k = 0.138090
         3         4        30        32     9        0.000000       -1.260573         1    ;  uncertainty k = 0.291179
         3         4        30        32     9      180.000000        3.405719         2    ;  uncertainty k = 0.161953
         3         4        30        32     9        0.000000        0.126539         3    ;  uncertainty k = 0.145012
         3         4        30        32     9      180.000000        0.316733         4    ;  uncertainty k = 0.138090
         3         4        30        33     9        0.000000       -1.260573         1    ;  uncertainty k = 0.291179
         3         4        30        33     9      180.000000        3.405719         2    ;  uncertainty k = 0.161953
         3         4        30        33     9        0.000000        0.126539         3    ;  uncertainty k = 0.145012
         3         4        30        33     9      180.000000        0.316733         4    ;  uncertainty k = 0.138090
         4         3         2         7     9        0.000000       -0.139725         1    ;  uncertainty k = 0.400690
         4         3         2         7     9      180.000000       11.529651         2    ;  uncertainty k = 0.422011
         4         3         2         7     9        0.000000       -1.211989         3    ;  uncertainty k = 0.582451
         4         3         2         7     9      180.000000        1.007422         4    ;  uncertainty k = 0.107637
         4         5         6         7     9        0.000000       -0.790671         1    ;  uncertainty k = 1.170560
         4         5         6         7     9      180.000000        7.981012         2    ;  uncertainty k = 0.718430
         4         5         6         7     9        0.000000        0.698387         3    ;  uncertainty k = 0.508736
         4         5         6         7     9      180.000000        0.714413         4    ;  uncertainty k = 0.181241
         4         5         6         8     9        0.000000        0.134648         1    ;  uncertainty k = 1.059180
         4         5         6         8     9      180.000000       10.135896         2    ;  uncertainty k = 0.376401
         4         5         6         8     9        0.000000        1.678000         3    ;  uncertainty k = 0.239526
         4         5         6         8     9      180.000000        0.901877         4    ;  uncertainty k = 0.127606
         4        30        31        53     9        0.000000        1.152448         1    ;  uncertainty k = 0.431959
         4        30        31        53     9      180.000000       -0.889965         2    ;  uncertainty k = 0.279499
         4        30        31        53     9        0.000000        0.534552         3    ;  uncertainty k = 0.158071
         4        30        31        53     9      180.000000        0.027787         4    ;  uncertainty k = 0.107346
         4        30        31        54     9        0.000000        1.152448         1    ;  uncertainty k = 0.431959
         4        30        31        54     9      180.000000       -0.889965         2    ;  uncertainty k = 0.279499
         4        30        31        54     9        0.000000        0.534552         3    ;  uncertainty k = 0.158071
         4        30        31        54     9      180.000000        0.027787         4    ;  uncertainty k = 0.107346
         4        30        31        55     9        0.000000        1.152448         1    ;  uncertainty k = 0.431959
         4        30        31        55     9      180.000000       -0.889965         2    ;  uncertainty k = 0.279499
         4        30        31        55     9        0.000000        0.534552         3    ;  uncertainty k = 0.158071
         4        30        31        55     9      180.000000        0.027787         4    ;  uncertainty k = 0.107346
         4        30        32        56     9        0.000000        1.152448         1    ;  uncertainty k = 0.431959
         4        30        32        56     9      180.000000       -0.889965         2    ;  uncertainty k = 0.279499
         4        30        32        56     9        0.000000        0.534552         3    ;  uncertainty k = 0.158071
         4        30        32        56     9      180.000000        0.027787         4    ;  uncertainty k = 0.107346
         4        30        32        57     9        0.000000        1.152448         1    ;  uncertainty k = 0.431959
         4        30        32        57     9      180.000000       -0.889965         2    ;  uncertainty k = 0.279499
         4        30        32        57     9        0.000000        0.534552         3    ;  uncertainty k = 0.158071
         4        30        32        57     9      180.000000        0.027787         4    ;  uncertainty k = 0.107346
         4        30        32        58     9        0.000000        1.152448         1    ;  uncertainty k = 0.431959
         4        30        32        58     9      180.000000       -0.889965         2    ;  uncertainty k = 0.279499
         4        30        32        58     9        0.000000        0.534552         3    ;  uncertainty k = 0.158071
         4        30        32        58     9      180.000000        0.027787         4    ;  uncertainty k = 0.107346
         4        30        33        59     9        0.000000        1.152448         1    ;  uncertainty k = 0.431959
         4        30        33        59     9      180.000000       -0.889965         2    ;  uncertainty k = 0.279499
         4        30        33        59     9        0.000000        0.534552         3    ;  uncertainty k = 0.158071
         4        30        33        59     9      180.000000        0.027787         4    ;  uncertainty k = 0.107346
         4        30        33        60     9        0.000000        1.152448         1    ;  uncertainty k = 0.431959
         4        30        33        60     9      180.000000       -0.889965         2    ;  uncertainty k = 0.279499
         4        30        33        60     9        0.000000        0.534552         3    ;  uncertainty k = 0.158071
         4        30        33        60     9      180.000000        0.027787         4    ;  uncertainty k = 0.107346
         4        30        33        61     9        0.000000        1.152448         1    ;  uncertainty k = 0.431959
         4        30        33        61     9      180.000000       -0.889965         2    ;  uncertainty k = 0.279499
         4        30        33        61     9        0.000000        0.534552         3    ;  uncertainty k = 0.158071
         4        30        33        61     9      180.000000        0.027787         4    ;  uncertainty k = 0.107346
         5         4         3        37     9        0.000000        0.307711         1    ;  uncertainty k = 0.347033
         5         4         3        37     9      180.000000        8.796494         2    ;  uncertainty k = 0.543885
         5         4         3        37     9        0.000000        1.153790         3    ;  uncertainty k = 0.366756
         5         4         3        37     9      180.000000        1.588016         4    ;  uncertainty k = 0.130161
         5         4        30        31     9        0.000000        0.335925         1    ;  uncertainty k = 0.264764
         5         4        30        31     9      180.000000        4.331561         2    ;  uncertainty k = 0.391124
         5         4        30        31     9        0.000000        0.669777         3    ;  uncertainty k = 0.120055
         5         4        30        31     9      180.000000        0.411670         4    ;  uncertainty k = 0.086677
         5         4        30        32     9        0.000000        0.335925         1    ;  uncertainty k = 0.264764
         5         4        30        32     9      180.000000        4.331561         2    ;  uncertainty k = 0.391124
         5         4        30        32     9        0.000000        0.669777         3    ;  uncertainty k = 0.120055
         5         4        30        32     9      180.000000        0.411670         4    ;  uncertainty k = 0.086677
         5         4        30        33     9        0.000000        0.335925         1    ;  uncertainty k = 0.264764
         5         4        30        33     9      180.000000        4.331561         2    ;  uncertainty k = 0.391124
         5         4        30        33     9        0.000000        0.669777         3    ;  uncertainty k = 0.120055
         5         4        30        33     9      180.000000        0.411670         4    ;  uncertainty k = 0.086677
         5         6         8         9     9        0.000000        5.274519         1    ;  uncertainty k = 0.484807
         5         6         8         9     9      180.000000       11.775357         2    ;  uncertainty k = 0.208131
         5         6         8         9     9        0.000000        0.180551         3    ;  uncertainty k = 0.178207
         5         6         8         9     9      180.000000       -0.347180         4    ;  uncertainty k = 0.089701
         5         6         8        15     9        0.000000        5.274519         1    ;  uncertainty k = 0.484807
         5         6         8        15     9      180.000000       11.775355         2    ;  uncertainty k = 0.208130
         5         6         8        15     9        0.000000        0.180551         3    ;  uncertainty k = 0.178206
         5         6         8        15     9      180.000000       -0.347180         4    ;  uncertainty k = 0.089701
         6         5         4        30     9        0.000000        0.692676         1    ;  uncertainty k = 1.389494
         6         5         4        30     9      180.000000       14.048022         2    ;  uncertainty k = 0.352732
         6         5         4        30     9        0.000000        2.089106         3    ;  uncertainty k = 0.518832
         6         5         4        30     9      180.000000        1.539169         4    ;  uncertainty k = 0.514045
         6         8         9        10     9        0.000000       -5.434375         1    ;  uncertainty k = 1.746014
         6         8         9        10     9      180.000000        0.700681         2    ;  uncertainty k = 0.698661
         6         8         9        10     9        0.000000        0.816764         3    ;  uncertainty k = 0.296617
         6         8         9        10     9      180.000000        0.320071         4    ;  uncertainty k = 0.126420
         6         8         9        38     9        0.000000       -0.223800         1    ;  uncertainty k = 0.763521
         6         8         9        38     9      180.000000        1.042698         2    ;  uncertainty k = 0.387873
         6         8         9        38     9        0.000000        0.585774         3    ;  uncertainty k = 0.125082
         6         8         9        38     9      180.000000        0.381714         4    ;  uncertainty k = 0.105956
         6         8         9        39     9        0.000000       -0.223800         1    ;  uncertainty k = 0.763521
         6         8         9        39     9      180.000000        1.042698         2    ;  uncertainty k = 0.387873
         6         8         9        39     9        0.000000        0.585774         3    ;  uncertainty k = 0.125082
         6         8         9        39     9      180.000000        0.381714         4    ;  uncertainty k = 0.105956
         6         8        15        14     9        0.000000       -5.434374         1    ;  uncertainty k = 1.746012
         6         8        15        14     9      180.000000        0.700680         2    ;  uncertainty k = 0.698659
         6         8        15        14     9        0.000000        0.816764         3    ;  uncertainty k = 0.296616
         6         8        15        14     9      180.000000        0.320071         4    ;  uncertainty k = 0.126420
         6         8        15        46     9        0.000000       -0.223800         1    ;  uncertainty k = 0.763521
         6         8        15        46     9      180.000000        1.042696         2    ;  uncertainty k = 0.387875
         6         8        15        46     9        0.000000        0.585775         3    ;  uncertainty k = 0.125082
         6         8        15        46     9      180.000000        0.381715         4    ;  uncertainty k = 0.105957
         6         8        15        47     9        0.000000       -0.223800         1    ;  uncertainty k = 0.763521
         6         8        15        47     9      180.000000        1.042696         2    ;  uncertainty k = 0.387875
         6         8        15        47     9        0.000000        0.585775         3    ;  uncertainty k = 0.125082
         6         8        15        47     9      180.000000        0.381715         4    ;  uncertainty k = 0.105957
         7         2         1        34     9        0.000000        0.615603         1    ;  uncertainty k = 0.235863
         7         2         1        34     9      180.000000        3.639485         2    ;  uncertainty k = 0.066340
         7         2         1        34     9        0.000000        0.491115         3    ;  uncertainty k = 0.029324
         7         2         1        34     9      180.000000        0.272769         4    ;  uncertainty k = 0.043600
         7         2         1        35     9        0.000000        0.615603         1    ;  uncertainty k = 0.235863
         7         2         1        35     9      180.000000        3.639485         2    ;  uncertainty k = 0.066340
         7         2         1        35     9        0.000000        0.491115         3    ;  uncertainty k = 0.029324
         7         2         1        35     9      180.000000        0.272769         4    ;  uncertainty k = 0.043600
         7         2         1        36     9        0.000000        0.615603         1    ;  uncertainty k = 0.235863
         7         2         1        36     9      180.000000        3.639485         2    ;  uncertainty k = 0.066340
         7         2         1        36     9        0.000000        0.491115         3    ;  uncertainty k = 0.029324
         7         2         1        36     9      180.000000        0.272769         4    ;  uncertainty k = 0.043600
         7         2         3        37     9        0.000000        0.176907         1    ;  uncertainty k = 0.421796
         7         2         3        37     9      180.000000        8.485918         2    ;  uncertainty k = 0.391261
         7         2         3        37     9        0.000000        1.111005         3    ;  uncertainty k = 0.302952
         7         2         3        37     9      180.000000        1.628104         4    ;  uncertainty k = 0.085144
         7         6         8         9     9        0.000000        5.056301         1    ;  uncertainty k = 0.470164
         7         6         8         9     9      180.000000       11.728274         2    ;  uncertainty k = 0.123158
         7         6         8         9     9        0.000000        0.190333         3    ;  uncertainty k = 0.207172
         7         6         8         9     9      180.000000       -0.335940         4    ;  uncertainty k = 0.060206
         7         6         8        15     9        0.000000        5.056301         1    ;  uncertainty k = 0.470161
         7         6         8        15     9      180.000000       11.728271         2    ;  uncertainty k = 0.123157
         7         6         8        15     9        0.000000        0.190332         3    ;  uncertainty k = 0.207172
         7         6         8        15     9      180.000000       -0.335939         4    ;  uncertainty k = 0.060206
         8         9        10        11     9        0.000000       -1.986982         1    ;  uncertainty k = 1.131584
         8         9        10        11     9      180.000000        0.974418         2    ;  uncertainty k = 0.865254
         8         9        10        11     9        0.000000        1.658617         3    ;  uncertainty k = 0.387465
         8         9        10        11     9      180.000000       -0.170490         4    ;  uncertainty k = 0.236445
         8         9        10        14     9        0.000000       -0.248945         1    ;  uncertainty k = 1.669286
         8         9        10        14     9      180.000000        6.161827         2    ;  uncertainty k = 1.110761
         8         9        10        14     9        0.000000        0.670927         3    ;  uncertainty k = 0.347090
         8         9        10        14     9      180.000000       -1.488831         4    ;  uncertainty k = 0.506458
         8         9        10        40     9        0.000000        0.565923         1    ;  uncertainty k = 0.856651
         8         9        10        40     9      180.000000        1.324272         2    ;  uncertainty k = 0.513614
         8         9        10        40     9        0.000000        1.171168         3    ;  uncertainty k = 0.217600
         8         9        10        40     9      180.000000       -0.072433         4    ;  uncertainty k = 0.184790
         8        15        14        10     9        0.000000       -0.248945         1    ;  uncertainty k = 1.669289
         8        15        14        10     9      180.000000        6.161828         2    ;  uncertainty k = 1.110762
         8        15        14        10     9        0.000000        0.670927         3    ;  uncertainty k = 0.347090
         8        15        14        10     9      180.000000       -1.488831         4    ;  uncertainty k = 0.506459
         8        15        14        13     9        0.000000       -1.986981         1    ;  uncertainty k = 1.131583
         8        15        14        13     9      180.000000        0.974418         2    ;  uncertainty k = 0.865255
         8        15        14        13     9        0.000000        1.658617         3    ;  uncertainty k = 0.387465
         8        15        14        13     9      180.000000       -0.170489         4    ;  uncertainty k = 0.236445
         8        15        14        45     9        0.000000        0.565924         1    ;  uncertainty k = 0.856650
         8        15        14        45     9      180.000000        1.324273         2    ;  uncertainty k = 0.513614
         8        15        14        45     9        0.000000        1.171169         3    ;  uncertainty k = 0.217600
         8        15        14        45     9      180.000000       -0.072433         4    ;  uncertainty k = 0.184790
         9         8        15        14     9        0.000000        0.409931         1    ;  uncertainty k = 1.033845
         9         8        15        14     9      180.000000        1.423323         2    ;  uncertainty k = 1.181229
         9         8        15        14     9        0.000000        0.860226         3    ;  uncertainty k = 0.332034
         9         8        15        14     9      180.000000        0.010764         4    ;  uncertainty k = 0.168708
         9         8        15        46     9        0.000000       -2.106812         1    ;  uncertainty k = 0.722682
         9         8        15        46     9      180.000000        1.271152         2    ;  uncertainty k = 0.391418
         9         8        15        46     9        0.000000        1.144989         3    ;  uncertainty k = 0.081016
         9         8        15        46     9      180.000000        0.249969         4    ;  uncertainty k = 0.124009
         9         8        15        47     9        0.000000       -2.106812         1    ;  uncertainty k = 0.722682
         9         8        15        47     9      180.000000        1.271152         2    ;  uncertainty k = 0.391418
         9         8        15        47     9        0.000000        1.144989         3    ;  uncertainty k = 0.081016
         9         8        15        47     9      180.000000        0.249969         4    ;  uncertainty k = 0.124009
         9        10        11        12     9        0.000000       -2.607420         1    ;  uncertainty k = 0.995424
         9        10        11        12     9      180.000000        0.022076         2    ;  uncertainty k = 0.727033
         9        10        11        12     9        0.000000        1.612970         3    ;  uncertainty k = 0.235291
         9        10        11        12     9      180.000000       -0.185713         4    ;  uncertainty k = 0.112586
         9        10        11        41     9        0.000000       -0.498818         1    ;  uncertainty k = 0.107247
         9        10        11        41     9      180.000000       -0.409706         2    ;  uncertainty k = 0.197166
         9        10        11        41     9        0.000000        0.564543         3    ;  uncertainty k = 0.186998
         9        10        11        41     9      180.000000       -0.072177         4    ;  uncertainty k = 0.062323
         9        10        11        42     9        0.000000       -0.498818         1    ;  uncertainty k = 0.107247
         9        10        11        42     9      180.000000       -0.409706         2    ;  uncertainty k = 0.197166
         9        10        11        42     9        0.000000        0.564543         3    ;  uncertainty k = 0.186998
         9        10        11        42     9      180.000000       -0.072177         4    ;  uncertainty k = 0.062323
         9        10        14        13     9        0.000000       -3.847150         1    ;  uncertainty k = 0.842081
         9        10        14        13     9      180.000000        0.994502         2    ;  uncertainty k = 1.017626
         9        10        14        13     9        0.000000        1.189094         3    ;  uncertainty k = 0.581588
         9        10        14        13     9      180.000000       -0.416044         4    ;  uncertainty k = 0.334399
         9        10        14        15     9        0.000000       -3.896618         1    ;  uncertainty k = 1.087275
         9        10        14        15     9      180.000000        1.035025         2    ;  uncertainty k = 1.026286
         9        10        14        15     9        0.000000        1.207838         3    ;  uncertainty k = 0.671623
         9        10        14        15     9      180.000000       -0.436931         4    ;  uncertainty k = 0.343366
         9        10        14        45     9        0.000000       -1.223112         1    ;  uncertainty k = 0.611377
         9        10        14        45     9      180.000000        0.489634         2    ;  uncertainty k = 0.414978
         9        10        14        45     9        0.000000        0.997353         3    ;  uncertainty k = 0.241670
         9        10        14        45     9      180.000000        0.066778         4    ;  uncertainty k = 0.087125
        10         9         8        15     9        0.000000        0.409930         1    ;  uncertainty k = 1.033845
        10         9         8        15     9      180.000000        1.423324         2    ;  uncertainty k = 1.181230
        10         9         8        15     9        0.000000        0.860226         3    ;  uncertainty k = 0.332035
        10         9         8        15     9      180.000000        0.010764         4    ;  uncertainty k = 0.168708
        10        11        12        13     9        0.000000       -0.578347         1    ;  uncertainty k = 0.919747
        10        11        12        13     9      180.000000        0.242792         2    ;  uncertainty k = 0.701024
        10        11        12        13     9        0.000000        0.797027         3    ;  uncertainty k = 0.218418
        10        11        12        13     9      180.000000        0.154107         4    ;  uncertainty k = 0.246781
        10        11        12        16     9        0.000000       -0.209381         1    ;  uncertainty k = 0.966461
        10        11        12        16     9      180.000000       -0.541701         2    ;  uncertainty k = 0.373893
        10        11        12        16     9        0.000000        0.202801         3    ;  uncertainty k = 0.362931
        10        11        12        16     9      180.000000        0.702312         4    ;  uncertainty k = 0.132281
        10        14        13        12     9        0.000000       -0.736764         1    ;  uncertainty k = 0.633515
        10        14        13        12     9      180.000000        6.025412         2    ;  uncertainty k = 1.000861
        10        14        13        12     9        0.000000        0.435197         3    ;  uncertainty k = 0.297546
        10        14        13        12     9      180.000000       -1.170163         4    ;  uncertainty k = 0.204855
        10        14        13        43     9        0.000000        0.480411         1    ;  uncertainty k = 0.492791
        10        14        13        43     9      180.000000       -1.104496         2    ;  uncertainty k = 0.672329
        10        14        13        43     9        0.000000       -0.270073         3    ;  uncertainty k = 0.170671
        10        14        13        43     9      180.000000       -0.013160         4    ;  uncertainty k = 0.174221
        10        14        13        44     9        0.000000        0.480411         1    ;  uncertainty k = 0.492791
        10        14        13        44     9      180.000000       -1.104496         2    ;  uncertainty k = 0.672329
        10        14        13        44     9        0.000000       -0.270073         3    ;  uncertainty k = 0.170671
        10        14        13        44     9      180.000000       -0.013160         4    ;  uncertainty k = 0.174221
        10        14        15        46     9        0.000000        0.646621         1    ;  uncertainty k = 0.517783
        10        14        15        46     9      180.000000       -1.099688         2    ;  uncertainty k = 0.743824
        10        14        15        46     9        0.000000       -0.334779         3    ;  uncertainty k = 0.213643
        10        14        15        46     9      180.000000       -0.018734         4    ;  uncertainty k = 0.206092
        10        14        15        47     9        0.000000        0.646621         1    ;  uncertainty k = 0.517783
        10        14        15        47     9      180.000000       -1.099688         2    ;  uncertainty k = 0.743824
        10        14        15        47     9        0.000000       -0.334779         3    ;  uncertainty k = 0.213643
        10        14        15        47     9      180.000000       -0.018734         4    ;  uncertainty k = 0.206092
        11        10         9        38     9        0.000000       -0.670734         1    ;  uncertainty k = 0.233995
        11        10         9        38     9      180.000000       -0.386310         2    ;  uncertainty k = 0.258590
        11        10         9        38     9        0.000000        0.557637         3    ;  uncertainty k = 0.179621
        11        10         9        38     9      180.000000       -0.081826         4    ;  uncertainty k = 0.095492
        11        10         9        39     9        0.000000       -0.670734         1    ;  uncertainty k = 0.233995
        11        10         9        39     9      180.000000       -0.386310         2    ;  uncertainty k = 0.258590
        11        10         9        39     9        0.000000        0.557637         3    ;  uncertainty k = 0.179621
        11        10         9        39     9      180.000000       -0.081826         4    ;  uncertainty k = 0.095492
        11        10        14        13     9        0.000000       -3.717091         1    ;  uncertainty k = 0.646014
        11        10        14        13     9      180.000000        0.952705         2    ;  uncertainty k = 0.984304
        11        10        14        13     9        0.000000        1.178983         3    ;  uncertainty k = 0.499657
        11        10        14        13     9      180.000000       -0.410261         4    ;  uncertainty k = 0.338854
        11        10        14        15     9        0.000000       -3.847151         1    ;  uncertainty k = 0.842082
        11        10        14        15     9      180.000000        0.994504         2    ;  uncertainty k = 1.017625
        11        10        14        15     9        0.000000        1.189094         3    ;  uncertainty k = 0.581588
        11        10        14        15     9      180.000000       -0.416044         4    ;  uncertainty k = 0.334399
        11        10        14        45     9        0.000000       -1.291634         1    ;  uncertainty k = 0.560343
        11        10        14        45     9      180.000000        0.594321         2    ;  uncertainty k = 0.368266
        11        10        14        45     9        0.000000        1.030260         3    ;  uncertainty k = 0.246250
        11        10        14        45     9      180.000000        0.081405         4    ;  uncertainty k = 0.059901
        11        12        13        14     9        0.000000       -0.578347         1    ;  uncertainty k = 0.919747
        11        12        13        14     9      180.000000        0.242792         2    ;  uncertainty k = 0.701025
        11        12        13        14     9        0.000000        0.797027         3    ;  uncertainty k = 0.218419
        11        12        13        14     9      180.000000        0.154107         4    ;  uncertainty k = 0.246781
        11        12        13        43     9        0.000000       -1.810377         1    ;  uncertainty k = 0.576097
        11        12        13        43     9      180.000000        1.086382         2    ;  uncertainty k = 0.426528
        11        12        13        43     9        0.000000        1.250141         3    ;  uncertainty k = 0.136647
        11        12        13        43     9      180.000000        0.301768         4    ;  uncertainty k = 0.117464
        11        12        13        44     9        0.000000       -1.810377         1    ;  uncertainty k = 0.576097
        11        12        13        44     9      180.000000        1.086382         2    ;  uncertainty k = 0.426528
        11        12        13        44     9        0.000000        1.250141         3    ;  uncertainty k = 0.136647
        11        12        13        44     9      180.000000        0.301768         4    ;  uncertainty k = 0.117464
        11        12        16        17     9        0.000000        6.357003         1    ;  uncertainty k = 0.547606
        11        12        16        17     9      180.000000       16.962734         2    ;  uncertainty k = 0.212954
        11        12        16        17     9        0.000000        0.267170         3    ;  uncertainty k = 0.202910
        11        12        16        17     9      180.000000       -1.190649         4    ;  uncertainty k = 0.124612
        11        12        16        18     9        0.000000        3.407849         1    ;  uncertainty k = 1.339110
        11        12        16        18     9      180.000000        8.996075         2    ;  uncertainty k = 0.412445
        11        12        16        18     9        0.000000        1.595044         3    ;  uncertainty k = 0.230309
        11        12        16        18     9      180.000000       -0.020267         4    ;  uncertainty k = 0.371981
        12        11        10        14     9        0.000000       -0.736762         1    ;  uncertainty k = 0.633517
        12        11        10        14     9      180.000000        6.025413         2    ;  uncertainty k = 1.000861
        12        11        10        14     9        0.000000        0.435196         3    ;  uncertainty k = 0.297545
        12        11        10        14     9      180.000000       -1.170163         4    ;  uncertainty k = 0.204856
        12        11        10        40     9        0.000000        0.123161         1    ;  uncertainty k = 0.632773
        12        11        10        40     9      180.000000        0.836162         2    ;  uncertainty k = 0.434791
        12        11        10        40     9        0.000000        1.098159         3    ;  uncertainty k = 0.161086
        12        11        10        40     9      180.000000       -0.066245         4    ;  uncertainty k = 0.104331
        12        13        14        15     9        0.000000       -2.607419         1    ;  uncertainty k = 0.995424
        12        13        14        15     9      180.000000        0.022076         2    ;  uncertainty k = 0.727033
        12        13        14        15     9        0.000000        1.612970         3    ;  uncertainty k = 0.235290
        12        13        14        15     9      180.000000       -0.185713         4    ;  uncertainty k = 0.112586
        12        13        14        45     9        0.000000        0.123160         1    ;  uncertainty k = 0.632774
        12        13        14        45     9      180.000000        0.836161         2    ;  uncertainty k = 0.434791
        12        13        14        45     9        0.000000        1.098159         3    ;  uncertainty k = 0.161086
        12        13        14        45     9      180.000000       -0.066245         4    ;  uncertainty k = 0.104331
        12        16        18        19     9        0.000000        1.851367         1    ;  uncertainty k = 1.259576
        12        16        18        19     9      180.000000        5.752965         2    ;  uncertainty k = 0.175508
        12        16        18        19     9        0.000000        0.162215         3    ;  uncertainty k = 0.318225
        12        16        18        19     9      180.000000        0.484794         4    ;  uncertainty k = 0.155871
        12        16        18        24     9        0.000000        3.709916         1    ;  uncertainty k = 1.132205
        12        16        18        24     9      180.000000        5.907216         2    ;  uncertainty k = 0.295098
        12        16        18        24     9        0.000000        0.162296         3    ;  uncertainty k = 0.106376
        12        16        18        24     9      180.000000        0.490410         4    ;  uncertainty k = 0.140372
        13        12        11        41     9        0.000000       -1.810377         1    ;  uncertainty k = 0.576098
        13        12        11        41     9      180.000000        1.086382         2    ;  uncertainty k = 0.426526
        13        12        11        41     9        0.000000        1.250141         3    ;  uncertainty k = 0.136647
        13        12        11        41     9      180.000000        0.301768         4    ;  uncertainty k = 0.117464
        13        12        11        42     9        0.000000       -1.810377         1    ;  uncertainty k = 0.576098
        13        12        11        42     9      180.000000        1.086382         2    ;  uncertainty k = 0.426526
        13        12        11        42     9        0.000000        1.250141         3    ;  uncertainty k = 0.136647
        13        12        11        42     9      180.000000        0.301768         4    ;  uncertainty k = 0.117464
        13        12        16        17     9        0.000000        6.357001         1    ;  uncertainty k = 0.547606
        13        12        16        17     9      180.000000       16.962734         2    ;  uncertainty k = 0.212955
        13        12        16        17     9        0.000000        0.267170         3    ;  uncertainty k = 0.202910
        13        12        16        17     9      180.000000       -1.190649         4    ;  uncertainty k = 0.124611
        13        12        16        18     9        0.000000        3.407847         1    ;  uncertainty k = 1.339110
        13        12        16        18     9      180.000000        8.996074         2    ;  uncertainty k = 0.412445
        13        12        16        18     9        0.000000        1.595043         3    ;  uncertainty k = 0.230310
        13        12        16        18     9      180.000000       -0.020268         4    ;  uncertainty k = 0.371981
        13        14        10        40     9        0.000000       -1.291633         1    ;  uncertainty k = 0.560343
        13        14        10        40     9      180.000000        0.594321         2    ;  uncertainty k = 0.368268
        13        14        10        40     9        0.000000        1.030260         3    ;  uncertainty k = 0.246250
        13        14        10        40     9      180.000000        0.081405         4    ;  uncertainty k = 0.059900
        13        14        15        46     9        0.000000       -0.670733         1    ;  uncertainty k = 0.233996
        13        14        15        46     9      180.000000       -0.386309         2    ;  uncertainty k = 0.258591
        13        14        15        46     9        0.000000        0.557638         3    ;  uncertainty k = 0.179621
        13        14        15        46     9      180.000000       -0.081826         4    ;  uncertainty k = 0.095492
        13        14        15        47     9        0.000000       -0.670733         1    ;  uncertainty k = 0.233996
        13        14        15        47     9      180.000000       -0.386309         2    ;  uncertainty k = 0.258591
        13        14        15        47     9        0.000000        0.557638         3    ;  uncertainty k = 0.179621
        13        14        15        47     9      180.000000       -0.081826         4    ;  uncertainty k = 0.095492
        14        10         9        38     9        0.000000        0.646621         1    ;  uncertainty k = 0.517781
        14        10         9        38     9      180.000000       -1.099689         2    ;  uncertainty k = 0.743823
        14        10         9        38     9        0.000000       -0.334778         3    ;  uncertainty k = 0.213644
        14        10         9        38     9      180.000000       -0.018734         4    ;  uncertainty k = 0.206091
        14        10         9        39     9        0.000000        0.646621         1    ;  uncertainty k = 0.517781
        14        10         9        39     9      180.000000       -1.099689         2    ;  uncertainty k = 0.743823
        14        10         9        39     9        0.000000       -0.334778         3    ;  uncertainty k = 0.213644
        14        10         9        39     9      180.000000       -0.018734         4    ;  uncertainty k = 0.206091
        14        10        11        41     9        0.000000        0.480411         1    ;  uncertainty k = 0.492791
        14        10        11        41     9      180.000000       -1.104495         2    ;  uncertainty k = 0.672328
        14        10        11        41     9        0.000000       -0.270073         3    ;  uncertainty k = 0.170671
        14        10        11        41     9      180.000000       -0.013161         4    ;  uncertainty k = 0.174221
        14        10        11        42     9        0.000000        0.480411         1    ;  uncertainty k = 0.492791
        14        10        11        42     9      180.000000       -1.104495         2    ;  uncertainty k = 0.672328
        14        10        11        42     9        0.000000       -0.270073         3    ;  uncertainty k = 0.170671
        14        10        11        42     9      180.000000       -0.013161         4    ;  uncertainty k = 0.174221
        14        13        12        16     9        0.000000       -0.209380         1    ;  uncertainty k = 0.966459
        14        13        12        16     9      180.000000       -0.541701         2    ;  uncertainty k = 0.373894
        14        13        12        16     9        0.000000        0.202801         3    ;  uncertainty k = 0.362931
        14        13        12        16     9      180.000000        0.702311         4    ;  uncertainty k = 0.132281
        15         8         9        38     9        0.000000       -2.106813         1    ;  uncertainty k = 0.722682
        15         8         9        38     9      180.000000        1.271152         2    ;  uncertainty k = 0.391418
        15         8         9        38     9        0.000000        1.144989         3    ;  uncertainty k = 0.081016
        15         8         9        38     9      180.000000        0.249969         4    ;  uncertainty k = 0.124009
        15         8         9        39     9        0.000000       -2.106813         1    ;  uncertainty k = 0.722682
        15         8         9        39     9      180.000000        1.271152         2    ;  uncertainty k = 0.391418
        15         8         9        39     9        0.000000        1.144989         3    ;  uncertainty k = 0.081016
        15         8         9        39     9      180.000000        0.249969         4    ;  uncertainty k = 0.124009
        15        14        10        40     9        0.000000       -1.223110         1    ;  uncertainty k = 0.611378
        15        14        10        40     9      180.000000        0.489635         2    ;  uncertainty k = 0.414979
        15        14        10        40     9        0.000000        0.997353         3    ;  uncertainty k = 0.241669
        15        14        10        40     9      180.000000        0.066778         4    ;  uncertainty k = 0.087125
        15        14        13        43     9        0.000000       -0.498818         1    ;  uncertainty k = 0.107248
        15        14        13        43     9      180.000000       -0.409705         2    ;  uncertainty k = 0.197166
        15        14        13        43     9        0.000000        0.564544         3    ;  uncertainty k = 0.186998
        15        14        13        43     9      180.000000       -0.072177         4    ;  uncertainty k = 0.062323
        15        14        13        44     9        0.000000       -0.498818         1    ;  uncertainty k = 0.107248
        15        14        13        44     9      180.000000       -0.409705         2    ;  uncertainty k = 0.197166
        15        14        13        44     9        0.000000        0.564544         3    ;  uncertainty k = 0.186998
        15        14        13        44     9      180.000000       -0.072177         4    ;  uncertainty k = 0.062323
        16        12        11        41     9        0.000000        1.416105         1    ;  uncertainty k = 0.719804
        16        12        11        41     9      180.000000        0.065610         2    ;  uncertainty k = 0.093474
        16        12        11        41     9        0.000000        0.002232         3    ;  uncertainty k = 0.089343
        16        12        11        41     9      180.000000        0.277826         4    ;  uncertainty k = 0.071341
        16        12        11        42     9        0.000000        1.416105         1    ;  uncertainty k = 0.719804
        16        12        11        42     9      180.000000        0.065610         2    ;  uncertainty k = 0.093474
        16        12        11        42     9        0.000000        0.002232         3    ;  uncertainty k = 0.089343
        16        12        11        42     9      180.000000        0.277826         4    ;  uncertainty k = 0.071341
        16        12        13        43     9        0.000000        1.416105         1    ;  uncertainty k = 0.719804
        16        12        13        43     9      180.000000        0.065610         2    ;  uncertainty k = 0.093472
        16        12        13        43     9        0.000000        0.002232         3    ;  uncertainty k = 0.089343
        16        12        13        43     9      180.000000        0.277826         4    ;  uncertainty k = 0.071341
        16        12        13        44     9        0.000000        1.416105         1    ;  uncertainty k = 0.719804
        16        12        13        44     9      180.000000        0.065610         2    ;  uncertainty k = 0.093472
        16        12        13        44     9        0.000000        0.002232         3    ;  uncertainty k = 0.089343
        16        12        13        44     9      180.000000        0.277826         4    ;  uncertainty k = 0.071341
        16        18        19        20     9        0.000000        0.086680         1    ;  uncertainty k = 0.322670
        16        18        19        20     9      180.000000       11.407953         2    ;  uncertainty k = 0.599565
        16        18        19        20     9        0.000000        1.385161         3    ;  uncertainty k = 0.187005
        16        18        19        20     9      180.000000        1.483635         4    ;  uncertainty k = 0.318096
        16        18        19        21     9        0.000000        0.114462         1    ;  uncertainty k = 0.659063
        16        18        19        21     9      180.000000        6.312817         2    ;  uncertainty k = 0.577136
        16        18        19        21     9        0.000000        1.356865         3    ;  uncertainty k = 0.282275
        16        18        19        21     9      180.000000        1.940646         4    ;  uncertainty k = 0.196893
        16        18        24        23     9        0.000000        0.266109         1    ;  uncertainty k = 0.262230
        16        18        24        23     9      180.000000        6.791976         2    ;  uncertainty k = 0.556220
        16        18        24        23     9        0.000000        1.305735         3    ;  uncertainty k = 0.332052
        16        18        24        23     9      180.000000        1.750369         4    ;  uncertainty k = 0.249436
        16        18        24        25     9        0.000000       -0.079088         1    ;  uncertainty k = 0.890587
        16        18        24        25     9      180.000000       10.037557         2    ;  uncertainty k = 0.622174
        16        18        24        25     9        0.000000        1.315712         3    ;  uncertainty k = 0.504290
        16        18        24        25     9      180.000000        1.286094         4    ;  uncertainty k = 0.361801
        17        16        18        19     9        0.000000       -1.928785         1    ;  uncertainty k = 0.969843
        17        16        18        19     9      180.000000        5.038791         2    ;  uncertainty k = 0.443316
        17        16        18        19     9        0.000000        0.869540         3    ;  uncertainty k = 0.424298
        17        16        18        19     9      180.000000        0.459984         4    ;  uncertainty k = 0.229979
        17        16        18        24     9        0.000000       -3.997731         1    ;  uncertainty k = 0.906468
        17        16        18        24     9      180.000000        5.945518         2    ;  uncertainty k = 0.542758
        17        16        18        24     9        0.000000        0.551178         3    ;  uncertainty k = 0.549645
        17        16        18        24     9      180.000000        0.513462         4    ;  uncertainty k = 0.329406
        18        19        21        22     9        0.000000        0.011529         1    ;  uncertainty k = 0.194930
        18        19        21        22     9      180.000000        8.787238         2    ;  uncertainty k = 0.361867
        18        19        21        22     9        0.000000        0.106727         3    ;  uncertainty k = 0.344316
        18        19        21        22     9      180.000000        1.205900         4    ;  uncertainty k = 0.276948
        18        19        21        48     9        0.000000       -0.168918         1    ;  uncertainty k = 0.390695
        18        19        21        48     9      180.000000        5.695522         2    ;  uncertainty k = 0.674905
        18        19        21        48     9        0.000000        1.129293         3    ;  uncertainty k = 0.356557
        18        19        21        48     9      180.000000        1.505167         4    ;  uncertainty k = 0.216214
        18        24        23        22     9        0.000000       -0.242508         1    ;  uncertainty k = 0.315737
        18        24        23        22     9      180.000000        9.681246         2    ;  uncertainty k = 0.496020
        18        24        23        22     9        0.000000        0.240132         3    ;  uncertainty k = 0.161668
        18        24        23        22     9      180.000000        1.271249         4    ;  uncertainty k = 0.330409
        18        24        23        50     9        0.000000       -0.007148         1    ;  uncertainty k = 0.345797
        18        24        23        50     9      180.000000        6.393420         2    ;  uncertainty k = 0.363299
        18        24        23        50     9        0.000000        1.235598         3    ;  uncertainty k = 0.195907
        18        24        23        50     9      180.000000        1.608512         4    ;  uncertainty k = 0.191460
        18        24        25        26     9        0.000000       -1.535069         1    ;  uncertainty k = 0.563416
        18        24        25        26     9      180.000000        4.499715         2    ;  uncertainty k = 0.535585
        18        24        25        26     9        0.000000        0.637687         3    ;  uncertainty k = 0.351002
        18        24        25        26     9      180.000000       -0.090463         4    ;  uncertainty k = 0.183190
        18        24        25        29     9        0.000000       -1.535069         1    ;  uncertainty k = 0.563416
        18        24        25        29     9      180.000000        4.499715         2    ;  uncertainty k = 0.535585
        18        24        25        29     9        0.000000        0.637687         3    ;  uncertainty k = 0.351002
        18        24        25        29     9      180.000000       -0.090463         4    ;  uncertainty k = 0.183190
        19        18        24        23     9        0.000000       -0.242351         1    ;  uncertainty k = 0.420152
        19        18        24        23     9      180.000000        6.983637         2    ;  uncertainty k = 0.869640
        19        18        24        23     9        0.000000        0.325219         3    ;  uncertainty k = 0.349953
        19        18        24        23     9      180.000000        1.307286         4    ;  uncertainty k = 0.335099
        19        18        24        25     9        0.000000        0.337460         1    ;  uncertainty k = 0.391009
        19        18        24        25     9      180.000000       10.376661         2    ;  uncertainty k = 0.372710
        19        18        24        25     9        0.000000        1.330823         3    ;  uncertainty k = 0.417773
        19        18        24        25     9      180.000000        1.431413         4    ;  uncertainty k = 0.199546
        19        21        22        23     9        0.000000       -0.033963         1    ;  uncertainty k = 0.110226
        19        21        22        23     9      180.000000       13.984025         2    ;  uncertainty k = 0.340845
        19        21        22        23     9        0.000000       -1.042557         3    ;  uncertainty k = 0.357764
        19        21        22        23     9      180.000000        0.802609         4    ;  uncertainty k = 0.247483
        19        21        22        49     9        0.000000       -0.104379         1    ;  uncertainty k = 0.141872
        19        21        22        49     9      180.000000        7.264410         2    ;  uncertainty k = 0.340044
        19        21        22        49     9        0.000000        1.287730         3    ;  uncertainty k = 0.202339
        19        21        22        49     9      180.000000        1.653500         4    ;  uncertainty k = 0.150967
        20        19        18        24     9        0.000000        0.033254         1    ;  uncertainty k = 0.304862
        20        19        18        24     9      180.000000       11.302610         2    ;  uncertainty k = 0.302059
        20        19        18        24     9        0.000000        1.679241         3    ;  uncertainty k = 0.164696
        20        19        18        24     9      180.000000        1.555515         4    ;  uncertainty k = 0.157671
        20        19        21        22     9        0.000000       -0.080232         1    ;  uncertainty k = 0.461474
        20        19        21        22     9      180.000000       13.203682         2    ;  uncertainty k = 0.340325
        20        19        21        22     9        0.000000        1.295972         3    ;  uncertainty k = 0.165134
        20        19        21        22     9      180.000000        1.523069         4    ;  uncertainty k = 0.233966
        20        19        21        48     9        0.000000       -0.128834         1    ;  uncertainty k = 0.456012
        20        19        21        48     9      180.000000        9.556552         2    ;  uncertainty k = 0.491147
        20        19        21        48     9        0.000000        0.767278         3    ;  uncertainty k = 0.273034
        20        19        21        48     9      180.000000        1.024642         4    ;  uncertainty k = 0.200947
        21        19        18        24     9        0.000000       -0.325541         1    ;  uncertainty k = 0.355388
        21        19        18        24     9      180.000000        6.052960         2    ;  uncertainty k = 0.864094
        21        19        18        24     9        0.000000        0.684668         3    ;  uncertainty k = 0.181781
        21        19        18        24     9      180.000000        1.492448         4    ;  uncertainty k = 0.353261
        21        22        23        24     9        0.000000       -0.096416         1    ;  uncertainty k = 0.180639
        21        22        23        24     9      180.000000       13.532949         2    ;  uncertainty k = 0.268821
        21        22        23        24     9        0.000000       -0.934273         3    ;  uncertainty k = 0.410646
        21        22        23        24     9      180.000000        0.824229         4    ;  uncertainty k = 0.239882
        21        22        23        50     9        0.000000        0.090918         1    ;  uncertainty k = 0.138952
        21        22        23        50     9      180.000000        7.803070         2    ;  uncertainty k = 0.340548
        21        22        23        50     9        0.000000        1.340932         3    ;  uncertainty k = 0.288750
        21        22        23        50     9      180.000000        1.895629         4    ;  uncertainty k = 0.190611
        22        23        24        25     9        0.000000        0.460449         1    ;  uncertainty k = 0.322983
        22        23        24        25     9      180.000000       11.387678         2    ;  uncertainty k = 0.346993
        22        23        24        25     9        0.000000        0.982542         3    ;  uncertainty k = 0.164036
        22        23        24        25     9      180.000000        1.624026         4    ;  uncertainty k = 0.138288
        23        22        21        48     9        0.000000        0.058868         1    ;  uncertainty k = 0.276257
        23        22        21        48     9      180.000000        7.716329         2    ;  uncertainty k = 0.326791
        23        22        21        48     9        0.000000        1.437490         3    ;  uncertainty k = 0.272563
        23        22        21        48     9      180.000000        1.759669         4    ;  uncertainty k = 0.126329
        23        24        25        26     9        0.000000        2.394481         1    ;  uncertainty k = 0.740964
        23        24        25        26     9      180.000000        4.329586         2    ;  uncertainty k = 0.263950
        23        24        25        26     9        0.000000        0.391713         3    ;  uncertainty k = 0.190597
        23        24        25        26     9      180.000000        0.083730         4    ;  uncertainty k = 0.150415
        23        24        25        29     9        0.000000        2.394481         1    ;  uncertainty k = 0.740964
        23        24        25        29     9      180.000000        4.329586         2    ;  uncertainty k = 0.263950
        23        24        25        29     9        0.000000        0.391713         3    ;  uncertainty k = 0.190597
        23        24        25        29     9      180.000000        0.083730         4    ;  uncertainty k = 0.150415
        24        23        22        49     9        0.000000       -0.010723         1    ;  uncertainty k = 0.237400
        24        23        22        49     9      180.000000        7.958978         2    ;  uncertainty k = 0.442749
        24        23        22        49     9        0.000000        1.209101         3    ;  uncertainty k = 0.164443
        24        23        22        49     9      180.000000        1.723739         4    ;  uncertainty k = 0.144208
        24        25        26        27     9        0.000000        0.797559         1    ;  uncertainty k = 2.309877
        24        25        26        27     9      180.000000       14.114446         2    ;  uncertainty k = 0.418682
        24        25        26        27     9        0.000000        1.402880         3    ;  uncertainty k = 0.442527
        24        25        26        27     9      180.000000        0.112613         4    ;  uncertainty k = 0.206946
        24        25        29        28     9        0.000000        0.797559         1    ;  uncertainty k = 2.309877
        24        25        29        28     9      180.000000       14.114446         2    ;  uncertainty k = 0.418682
        24        25        29        28     9        0.000000        1.402880         3    ;  uncertainty k = 0.442527
        24        25        29        28     9      180.000000        0.112613         4    ;  uncertainty k = 0.206946
        25        24        23        50     9        0.000000        0.135211         1    ;  uncertainty k = 0.398577
        25        24        23        50     9      180.000000        8.519176         2    ;  uncertainty k = 0.273746
        25        24        23        50     9        0.000000        0.803950         3    ;  uncertainty k = 0.224881
        25        24        23        50     9      180.000000        1.348903         4    ;  uncertainty k = 0.152778
        25        26        27        28     9        0.000000        0.015899         1    ;  uncertainty k = 0.518603
        25        26        27        28     9      180.000000       24.370143         2    ;  uncertainty k = 0.366584
        25        26        27        28     9        0.000000       -9.715998         3    ;  uncertainty k = 1.915613
        25        26        27        28     9      180.000000        2.426696         4    ;  uncertainty k = 0.655510
        25        26        27        51     9        0.000000        0.232294         1    ;  uncertainty k = 0.741580
        25        26        27        51     9      180.000000       22.028694         2    ;  uncertainty k = 0.487024
        25        26        27        51     9        0.000000        1.455895         3    ;  uncertainty k = 0.397708
        25        26        27        51     9      180.000000        1.220382         4    ;  uncertainty k = 0.604170
        25        29        28        27     9        0.000000        0.015899         1    ;  uncertainty k = 0.518603
        25        29        28        27     9      180.000000       24.370143         2    ;  uncertainty k = 0.366584
        25        29        28        27     9        0.000000       -9.715998         3    ;  uncertainty k = 1.915613
        25        29        28        27     9      180.000000        2.426696         4    ;  uncertainty k = 0.655510
        25        29        28        52     9        0.000000        0.232294         1    ;  uncertainty k = 0.741580
        25        29        28        52     9      180.000000       22.028694         2    ;  uncertainty k = 0.487024
        25        29        28        52     9        0.000000        1.455895         3    ;  uncertainty k = 0.397708
        25        29        28        52     9      180.000000        1.220382         4    ;  uncertainty k = 0.604170
        26        25        29        28     9        0.000000       -0.822391         1    ;  uncertainty k = 0.769863
        26        25        29        28     9      180.000000       22.038729         2    ;  uncertainty k = 0.271382
        26        25        29        28     9        0.000000       -8.305140         3    ;  uncertainty k = 1.269833
        26        25        29        28     9      180.000000        1.298759         4    ;  uncertainty k = 0.596553
        26        27        28        29     9        0.000000       -0.480158         1    ;  uncertainty k = 0.926462
        26        27        28        29     9      180.000000       16.735216         2    ;  uncertainty k = 1.309662
        26        27        28        29     9        0.000000      -12.155219         3    ;  uncertainty k = 1.939945
        26        27        28        29     9      180.000000        1.991293         4    ;  uncertainty k = 0.750423
        26        27        28        52     9        0.000000        0.154897         1    ;  uncertainty k = 0.970262
        26        27        28        52     9      180.000000       11.842300         2    ;  uncertainty k = 0.614370
        26        27        28        52     9        0.000000        0.922189         3    ;  uncertainty k = 0.757887
        26        27        28        52     9      180.000000        0.630945         4    ;  uncertainty k = 0.172002
        27        26        25        29     9        0.000000       -0.822391         1    ;  uncertainty k = 0.769863
        27        26        25        29     9      180.000000       22.038729         2    ;  uncertainty k = 0.271382
        27        26        25        29     9        0.000000       -8.305140         3    ;  uncertainty k = 1.269833
        27        26        25        29     9      180.000000        1.298759         4    ;  uncertainty k = 0.596553
        29        28        27        51     9        0.000000        0.154897         1    ;  uncertainty k = 0.970262
        29        28        27        51     9      180.000000       11.842300         2    ;  uncertainty k = 0.614370
        29        28        27        51     9        0.000000        0.922189         3    ;  uncertainty k = 0.757887
        29        28        27        51     9      180.000000        0.630945         4    ;  uncertainty k = 0.172002
        30         4         3        37     9        0.000000        0.177988         1    ;  uncertainty k = 0.519077
        30         4         3        37     9      180.000000        6.169585         2    ;  uncertainty k = 0.511215
        30         4         3        37     9        0.000000        0.521205         3    ;  uncertainty k = 0.390581
        30         4         3        37     9      180.000000        0.801120         4    ;  uncertainty k = 0.245224
        31        30        32        56     9        0.000000       -0.929359         1    ;  uncertainty k = 0.385950
        31        30        32        56     9      180.000000       -0.302539         2    ;  uncertainty k = 0.166743
        31        30        32        56     9        0.000000        0.753756         3    ;  uncertainty k = 0.032010
        31        30        32        56     9      180.000000       -0.042793         4    ;  uncertainty k = 0.049852
        31        30        32        57     9        0.000000       -0.929359         1    ;  uncertainty k = 0.385950
        31        30        32        57     9      180.000000       -0.302539         2    ;  uncertainty k = 0.166743
        31        30        32        57     9        0.000000        0.753756         3    ;  uncertainty k = 0.032010
        31        30        32        57     9      180.000000       -0.042793         4    ;  uncertainty k = 0.049852
        31        30        32        58     9        0.000000       -0.929359         1    ;  uncertainty k = 0.385950
        31        30        32        58     9      180.000000       -0.302539         2    ;  uncertainty k = 0.166743
        31        30        32        58     9        0.000000        0.753756         3    ;  uncertainty k = 0.032010
        31        30        32        58     9      180.000000       -0.042793         4    ;  uncertainty k = 0.049852
        31        30        33        59     9        0.000000       -0.929359         1    ;  uncertainty k = 0.385950
        31        30        33        59     9      180.000000       -0.302539         2    ;  uncertainty k = 0.166743
        31        30        33        59     9        0.000000        0.753756         3    ;  uncertainty k = 0.032010
        31        30        33        59     9      180.000000       -0.042793         4    ;  uncertainty k = 0.049852
        31        30        33        60     9        0.000000       -0.929359         1    ;  uncertainty k = 0.385950
        31        30        33        60     9      180.000000       -0.302539         2    ;  uncertainty k = 0.166743
        31        30        33        60     9        0.000000        0.753756         3    ;  uncertainty k = 0.032010
        31        30        33        60     9      180.000000       -0.042793         4    ;  uncertainty k = 0.049852
        31        30        33        61     9        0.000000       -0.929359         1    ;  uncertainty k = 0.385950
        31        30        33        61     9      180.000000       -0.302539         2    ;  uncertainty k = 0.166743
        31        30        33        61     9        0.000000        0.753756         3    ;  uncertainty k = 0.032010
        31        30        33        61     9      180.000000       -0.042793         4    ;  uncertainty k = 0.049852
        32        30        31        53     9        0.000000       -0.929359         1    ;  uncertainty k = 0.385950
        32        30        31        53     9      180.000000       -0.302539         2    ;  uncertainty k = 0.166743
        32        30        31        53     9        0.000000        0.753756         3    ;  uncertainty k = 0.032010
        32        30        31        53     9      180.000000       -0.042793         4    ;  uncertainty k = 0.049852
        32        30        31        54     9        0.000000       -0.929359         1    ;  uncertainty k = 0.385950
        32        30        31        54     9      180.000000       -0.302539         2    ;  uncertainty k = 0.166743
        32        30        31        54     9        0.000000        0.753756         3    ;  uncertainty k = 0.032010
        32        30        31        54     9      180.000000       -0.042793         4    ;  uncertainty k = 0.049852
        32        30        31        55     9        0.000000       -0.929359         1    ;  uncertainty k = 0.385950
        32        30        31        55     9      180.000000       -0.302539         2    ;  uncertainty k = 0.166743
        32        30        31        55     9        0.000000        0.753756         3    ;  uncertainty k = 0.032010
        32        30        31        55     9      180.000000       -0.042793         4    ;  uncertainty k = 0.049852
        32        30        33        59     9        0.000000       -0.929359         1    ;  uncertainty k = 0.385950
        32        30        33        59     9      180.000000       -0.302539         2    ;  uncertainty k = 0.166743
        32        30        33        59     9        0.000000        0.753756         3    ;  uncertainty k = 0.032010
        32        30        33        59     9      180.000000       -0.042793         4    ;  uncertainty k = 0.049852
        32        30        33        60     9        0.000000       -0.929359         1    ;  uncertainty k = 0.385950
        32        30        33        60     9      180.000000       -0.302539         2    ;  uncertainty k = 0.166743
        32        30        33        60     9        0.000000        0.753756         3    ;  uncertainty k = 0.032010
        32        30        33        60     9      180.000000       -0.042793         4    ;  uncertainty k = 0.049852
        32        30        33        61     9        0.000000       -0.929359         1    ;  uncertainty k = 0.385950
        32        30        33        61     9      180.000000       -0.302539         2    ;  uncertainty k = 0.166743
        32        30        33        61     9        0.000000        0.753756         3    ;  uncertainty k = 0.032010
        32        30        33        61     9      180.000000       -0.042793         4    ;  uncertainty k = 0.049852
        33        30        31        53     9        0.000000       -0.929359         1    ;  uncertainty k = 0.385950
        33        30        31        53     9      180.000000       -0.302539         2    ;  uncertainty k = 0.166743
        33        30        31        53     9        0.000000        0.753756         3    ;  uncertainty k = 0.032010
        33        30        31        53     9      180.000000       -0.042793         4    ;  uncertainty k = 0.049852
        33        30        31        54     9        0.000000       -0.929359         1    ;  uncertainty k = 0.385950
        33        30        31        54     9      180.000000       -0.302539         2    ;  uncertainty k = 0.166743
        33        30        31        54     9        0.000000        0.753756         3    ;  uncertainty k = 0.032010
        33        30        31        54     9      180.000000       -0.042793         4    ;  uncertainty k = 0.049852
        33        30        31        55     9        0.000000       -0.929359         1    ;  uncertainty k = 0.385950
        33        30        31        55     9      180.000000       -0.302539         2    ;  uncertainty k = 0.166743
        33        30        31        55     9        0.000000        0.753756         3    ;  uncertainty k = 0.032010
        33        30        31        55     9      180.000000       -0.042793         4    ;  uncertainty k = 0.049852
        33        30        32        56     9        0.000000       -0.929359         1    ;  uncertainty k = 0.385950
        33        30        32        56     9      180.000000       -0.302539         2    ;  uncertainty k = 0.166743
        33        30        32        56     9        0.000000        0.753756         3    ;  uncertainty k = 0.032010
        33        30        32        56     9      180.000000       -0.042793         4    ;  uncertainty k = 0.049852
        33        30        32        57     9        0.000000       -0.929359         1    ;  uncertainty k = 0.385950
        33        30        32        57     9      180.000000       -0.302539         2    ;  uncertainty k = 0.166743
        33        30        32        57     9        0.000000        0.753756         3    ;  uncertainty k = 0.032010
        33        30        32        57     9      180.000000       -0.042793         4    ;  uncertainty k = 0.049852
        33        30        32        58     9        0.000000       -0.929359         1    ;  uncertainty k = 0.385950
        33        30        32        58     9      180.000000       -0.302539         2    ;  uncertainty k = 0.166743
        33        30        32        58     9        0.000000        0.753756         3    ;  uncertainty k = 0.032010
        33        30        32        58     9      180.000000       -0.042793         4    ;  uncertainty k = 0.049852
        38         9        10        40     9        0.000000        0.359872         1    ;  uncertainty k = 0.316166
        38         9        10        40     9      180.000000       -0.360044         2    ;  uncertainty k = 0.197279
        38         9        10        40     9        0.000000        0.364903         3    ;  uncertainty k = 0.128583
        38         9        10        40     9      180.000000       -0.036803         4    ;  uncertainty k = 0.081429
        39         9        10        40     9        0.000000        0.359872         1    ;  uncertainty k = 0.316166
        39         9        10        40     9      180.000000       -0.360044         2    ;  uncertainty k = 0.197279
        39         9        10        40     9        0.000000        0.364903         3    ;  uncertainty k = 0.128583
        39         9        10        40     9      180.000000       -0.036803         4    ;  uncertainty k = 0.081429
        40        10        11        41     9        0.000000        0.423998         1    ;  uncertainty k = 0.297943
        40        10        11        41     9      180.000000       -0.322771         2    ;  uncertainty k = 0.253711
        40        10        11        41     9        0.000000        0.343158         3    ;  uncertainty k = 0.128710
        40        10        11        41     9      180.000000       -0.041305         4    ;  uncertainty k = 0.061986
        40        10        11        42     9        0.000000        0.423998         1    ;  uncertainty k = 0.297943
        40        10        11        42     9      180.000000       -0.322771         2    ;  uncertainty k = 0.253711
        40        10        11        42     9        0.000000        0.343158         3    ;  uncertainty k = 0.128710
        40        10        11        42     9      180.000000       -0.041305         4    ;  uncertainty k = 0.061986
        40        10        14        45     9        0.000000        3.534566         1    ;  uncertainty k = 1.183407
        40        10        14        45     9      180.000000       -0.219654         2    ;  uncertainty k = 0.641097
        40        10        14        45     9        0.000000        0.578188         3    ;  uncertainty k = 0.579178
        40        10        14        45     9      180.000000        0.212498         4    ;  uncertainty k = 0.291708
        43        13        14        45     9        0.000000        0.424000         1    ;  uncertainty k = 0.297943
        43        13        14        45     9      180.000000       -0.322771         2    ;  uncertainty k = 0.253710
        43        13        14        45     9        0.000000        0.343158         3    ;  uncertainty k = 0.128710
        43        13        14        45     9      180.000000       -0.041305         4    ;  uncertainty k = 0.061986
        44        13        14        45     9        0.000000        0.424000         1    ;  uncertainty k = 0.297943
        44        13        14        45     9      180.000000       -0.322771         2    ;  uncertainty k = 0.253710
        44        13        14        45     9        0.000000        0.343158         3    ;  uncertainty k = 0.128710
        44        13        14        45     9      180.000000       -0.041305         4    ;  uncertainty k = 0.061986
        45        14        15        46     9        0.000000        0.359873         1    ;  uncertainty k = 0.316165
        45        14        15        46     9      180.000000       -0.360044         2    ;  uncertainty k = 0.197281
        45        14        15        46     9        0.000000        0.364903         3    ;  uncertainty k = 0.128582
        45        14        15        46     9      180.000000       -0.036803         4    ;  uncertainty k = 0.081429
        45        14        15        47     9        0.000000        0.359873         1    ;  uncertainty k = 0.316165
        45        14        15        47     9      180.000000       -0.360044         2    ;  uncertainty k = 0.197281
        45        14        15        47     9        0.000000        0.364903         3    ;  uncertainty k = 0.128582
        45        14        15        47     9      180.000000       -0.036803         4    ;  uncertainty k = 0.081429
        48        21        22        49     9        0.000000       -0.020811         1    ;  uncertainty k = 0.168739
        48        21        22        49     9      180.000000        7.628630         2    ;  uncertainty k = 0.494067
        48        21        22        49     9        0.000000       -0.419007         3    ;  uncertainty k = 0.338955
        48        21        22        49     9      180.000000        0.009969         4    ;  uncertainty k = 0.203192
        49        22        23        50     9        0.000000        0.041837         1    ;  uncertainty k = 0.123335
        49        22        23        50     9      180.000000        7.941959         2    ;  uncertainty k = 0.372063
        49        22        23        50     9        0.000000       -0.460822         3    ;  uncertainty k = 0.327229
        49        22        23        50     9      180.000000        0.152785         4    ;  uncertainty k = 0.182743
        51        27        28        52     9        0.000000       -0.942648         1    ;  uncertainty k = 1.117582
        51        27        28        52     9      180.000000        4.272735         2    ;  uncertainty k = 0.760818
        51        27        28        52     9        0.000000        1.314863         3    ;  uncertainty k = 0.353594
        51        27        28        52     9      180.000000        0.150448         4    ;  uncertainty k = 0.159865

[ dihedrals ] ; impropers
;       ai        aj        ak        al funct           phase               k        pn
         2         1         3         7     4      180.000000       31.665414         2    ;  uncertainty k = 0.073917
         2         3         7         1     4      180.000000       31.665414         2    ;  uncertainty k = 0.073917
         2         7         1         3     4      180.000000       31.665414         2    ;  uncertainty k = 0.073917
         3         2         4        37     4      180.000000        1.377064         2    ;  uncertainty k = 0.356397
         3         4        37         2     4      180.000000        1.377064         2    ;  uncertainty k = 0.356397
         3        37         2         4     4      180.000000        1.377064         2    ;  uncertainty k = 0.356397
         4         3         5        30     4      180.000000       30.556742         2    ;  uncertainty k = 0.052190
         4         5        30         3     4      180.000000       30.556742         2    ;  uncertainty k = 0.052190
         4        30         3         5     4      180.000000       30.556742         2    ;  uncertainty k = 0.052190
         6         5         7         8     4      180.000000       42.438045         2    ;  uncertainty k = 0.064673
         6         7         8         5     4      180.000000       42.438045         2    ;  uncertainty k = 0.064673
         6         8         5         7     4      180.000000       42.438045         2    ;  uncertainty k = 0.064673
         8         6         9        15     4      180.000000        0.107879         2    ;  uncertainty k = 0.150249
         8         9        15         6     4      180.000000        0.107879         2    ;  uncertainty k = 0.150249
         8        15         6         9     4      180.000000        0.107879         2    ;  uncertainty k = 0.150249
        16        12        17        18     4      180.000000       52.212280         2    ;  uncertainty k = 0.071533
        16        17        18        12     4      180.000000       52.212280         2    ;  uncertainty k = 0.071533
        16        18        12        17     4      180.000000       52.212280         2    ;  uncertainty k = 0.071533
        18        16        19        24     4      180.000000        9.307072         2    ;  uncertainty k = 0.434424
        18        19        24        16     4      180.000000        9.307072         2    ;  uncertainty k = 0.434424
        18        24        16        19     4      180.000000        9.307072         2    ;  uncertainty k = 0.434424
        19        18        20        21     4      180.000000       15.115266         2    ;  uncertainty k = 0.210077
        19        20        21        18     4      180.000000       15.115266         2    ;  uncertainty k = 0.210077
        19        21        18        20     4      180.000000       15.115266         2    ;  uncertainty k = 0.210077
        21        19        22        48     4      180.000000        2.461870         2    ;  uncertainty k = 0.103991
        21        22        48        19     4      180.000000        2.461870         2    ;  uncertainty k = 0.103991
        21        48        19        22     4      180.000000        2.461870         2    ;  uncertainty k = 0.103991
        22        21        23        49     4      180.000000        4.937369         2    ;  uncertainty k = 0.112088
        22        23        49        21     4      180.000000        4.937369         2    ;  uncertainty k = 0.112088
        22        49        21        23     4      180.000000        4.937369         2    ;  uncertainty k = 0.112088
        23        22        24        50     4      180.000000        2.847064         2    ;  uncertainty k = 0.193191
        23        24        50        22     4      180.000000        2.847064         2    ;  uncertainty k = 0.193191
        23        50        22        24     4      180.000000        2.847064         2    ;  uncertainty k = 0.193191
        24        18        23        25     4      180.000000       12.584197         2    ;  uncertainty k = 0.129690
        24        23        25        18     4      180.000000       12.584197         2    ;  uncertainty k = 0.129690
        24        25        18        23     4      180.000000       12.584197         2    ;  uncertainty k = 0.129690
        27        26        28        51     4      180.000000        0.414726         2    ;  uncertainty k = 0.408832
        27        28        51        26     4      180.000000        0.414726         2    ;  uncertainty k = 0.408832
        27        51        26        28     4      180.000000        0.414726         2    ;  uncertainty k = 0.408832
        28        27        29        52     4      180.000000        0.414726         2    ;  uncertainty k = 0.408832
        28        29        52        27     4      180.000000        0.414726         2    ;  uncertainty k = 0.408832
        28        52        27        29     4      180.000000        0.414726         2    ;  uncertainty k = 0.408832

[ pairs ]
;       ai        aj funct
         1         4     1
         1         6     1
         1        37     1
         2         5     1
         2         8     1
         2        30     1
         3         6     1
         3        31     1
         3        32     1
         3        33     1
         3        34     1
         3        35     1
         3        36     1
         4         7     1
         4         8     1
         4        53     1
         4        54     1
         4        55     1
         4        56     1
         4        57     1
         4        58     1
         4        59     1
         4        60     1
         4        61     1
         5         9     1
         5        15     1
         5        31     1
         5        32     1
         5        33     1
         5        37     1
         6        10     1
         6        14     1
         6        30     1
         6        38     1
         6        39     1
         6        46     1
         6        47     1
         7         9     1
         7        15     1
         7        34     1
         7        35     1
         7        36     1
         7        37     1
         8        11     1
         8        13     1
         8        40     1
         8        45     1
         9        12     1
         9        13     1
         9        41     1
         9        42     1
         9        45     1
         9        46     1
         9        47     1
        10        16     1
        10        43     1
        10        44     1
        10        46     1
        10        47     1
        11        15     1
        11        17     1
        11        18     1
        11        38     1
        11        39     1
        11        43     1
        11        44     1
        11        45     1
        12        15     1
        12        19     1
        12        24     1
        12        40     1
        12        45     1
        13        17     1
        13        18     1
        13        40     1
        13        41     1
        13        42     1
        13        46     1
        13        47     1
        14        16     1
        14        38     1
        14        39     1
        14        41     1
        14        42     1
        15        38     1
        15        39     1
        15        40     1
        15        43     1
        15        44     1
        16        20     1
        16        21     1
        16        23     1
        16        25     1
        16        41     1
        16        42     1
        16        43     1
        16        44     1
        17        19     1
        17        24     1
        18        22     1
        18        26     1
        18        29     1
        18        48     1
        18        50     1
        19        23     1
        19        25     1
        19        49     1
        20        22     1
        20        24     1
        20        48     1
        21        24     1
        21        50     1
        22        25     1
        23        26     1
        23        29     1
        23        48     1
        24        27     1
        24        28     1
        24        49     1
        25        50     1
        25        51     1
        25        52     1
        26        52     1
        29        51     1
        30        37     1
        31        56     1
        31        57     1
        31        58     1
        31        59     1
        31        60     1
        31        61     1
        32        53     1
        32        54     1
        32        55     1
        32        59     1
        32        60     1
        32        61     1
        33        53     1
        33        54     1
        33        55     1
        33        56     1
        33        57     1
        33        58     1
        38        40     1
        39        40     1
        40        41     1
        40        42     1
        40        45     1
        43        45     1
        44        45     1
        45        46     1
        45        47     1
        48        49     1
        49        50     1
        51        52     1
