; ITP file created by ByteFF-joint-25, 2025-07-14 11:28:30.183233

[ atomtypes ]
;name           bonded.type        at.num        mass        charge   ptype           sigma         epsilon
 c0bf                                   6      0.0000       0.00000       A     3.39775e-01     4.50941e-01    ;  uncertainty sigma = 0.000007, epsilon = 0.000601
 c1bf                                   6      0.0000       0.00000       A     3.31510e-01     4.13126e-01    ;  uncertainty sigma = 0.000013, epsilon = 0.000596
 c2bf                                   6      0.0000       0.00000       A     3.31534e-01     4.13128e-01    ;  uncertainty sigma = 0.000018, epsilon = 0.000863
 c3bf                                   6      0.0000       0.00000       A     3.31532e-01     4.13392e-01    ;  uncertainty sigma = 0.000027, epsilon = 0.000653
 n4bf                                   7      0.0000       0.00000       A     3.38412e-01     3.93657e-01    ;  uncertainty sigma = 0.000021, epsilon = 0.001034
 c5bf                                   6      0.0000       0.00000       A     3.31537e-01     4.13227e-01    ;  uncertainty sigma = 0.000017, epsilon = 0.000698
 n6bf                                   7      0.0000       0.00000       A     3.38406e-01     3.93642e-01    ;  uncertainty sigma = 0.000013, epsilon = 0.000818
 n7bf                                   7      0.0000       0.00000       A     3.18952e-01     8.99173e-01    ;  uncertainty sigma = 0.000051, epsilon = 0.003588
 c8bf                                   6      0.0000       0.00000       A     3.39774e-01     4.50953e-01    ;  uncertainty sigma = 0.000012, epsilon = 0.001229
 c9bf                                   6      0.0000       0.00000       A     3.39776e-01     4.51373e-01    ;  uncertainty sigma = 0.000009, epsilon = 0.000969
 c10bf                                  6      0.0000       0.00000       A     3.39784e-01     4.51219e-01    ;  uncertainty sigma = 0.000006, epsilon = 0.000696
 n11bf                                  7      0.0000       0.00000       A     3.18086e-01     6.84039e-01    ;  uncertainty sigma = 0.000014, epsilon = 0.001467
 c12bf                                  6      0.0000       0.00000       A     3.39784e-01     4.51219e-01    ;  uncertainty sigma = 0.000006, epsilon = 0.000696
 c13bf                                  6      0.0000       0.00000       A     3.39776e-01     4.51373e-01    ;  uncertainty sigma = 0.000009, epsilon = 0.000969
 c14bf                                  6      0.0000       0.00000       A     3.39774e-01     4.50953e-01    ;  uncertainty sigma = 0.000012, epsilon = 0.001229
 c15bf                                  6      0.0000       0.00000       A     3.31486e-01     4.13134e-01    ;  uncertainty sigma = 0.000026, epsilon = 0.002146
 o16bf                                  8      0.0000       0.00000       A     3.04851e-01     6.12019e-01    ;  uncertainty sigma = 0.000026, epsilon = 0.001020
 c17bf                                  6      0.0000       0.00000       A     3.31488e-01     4.12415e-01    ;  uncertainty sigma = 0.000034, epsilon = 0.001171
 c18bf                                  6      0.0000       0.00000       A     3.31513e-01     4.12834e-01    ;  uncertainty sigma = 0.000016, epsilon = 0.001291
 f19bf                                  9      0.0000       0.00000       A     3.03451e-01     3.47872e-01    ;  uncertainty sigma = 0.000029, epsilon = 0.000470
 c20bf                                  6      0.0000       0.00000       A     3.31522e-01     4.13335e-01    ;  uncertainty sigma = 0.000005, epsilon = 0.000662
 c21bf                                  6      0.0000       0.00000       A     3.31521e-01     4.13421e-01    ;  uncertainty sigma = 0.000006, epsilon = 0.000781
 c22bf                                  6      0.0000       0.00000       A     3.31510e-01     4.13240e-01    ;  uncertainty sigma = 0.000014, epsilon = 0.000923
 c23bf                                  6      0.0000       0.00000       A     3.31553e-01     4.13601e-01    ;  uncertainty sigma = 0.000013, epsilon = 0.001582
 n24bf                                  7      0.0000       0.00000       A     3.20569e-01     8.54049e-01    ;  uncertainty sigma = 0.000030, epsilon = 0.002792
 n25bf                                  7      0.0000       0.00000       A     3.38413e-01     3.93694e-01    ;  uncertainty sigma = 0.000010, epsilon = 0.000693
 c26bf                                  6      0.0000       0.00000       A     3.31537e-01     4.13587e-01    ;  uncertainty sigma = 0.000007, epsilon = 0.000835
 c27bf                                  6      0.0000       0.00000       A     3.31537e-01     4.13587e-01    ;  uncertainty sigma = 0.000007, epsilon = 0.000835
 n28bf                                  7      0.0000       0.00000       A     3.38413e-01     3.93694e-01    ;  uncertainty sigma = 0.000010, epsilon = 0.000693
 c29bf                                  6      0.0000       0.00000       A     3.39829e-01     4.50821e-01    ;  uncertainty sigma = 0.000016, epsilon = 0.001431
 c30bf                                  6      0.0000       0.00000       A     3.39774e-01     4.50883e-01    ;  uncertainty sigma = 0.000003, epsilon = 0.000753
 c31bf                                  6      0.0000       0.00000       A     3.39774e-01     4.50883e-01    ;  uncertainty sigma = 0.000003, epsilon = 0.000753
 h32bf                                  1      0.0000       0.00000       A     2.60034e-01     8.66332e-02    ;  uncertainty sigma = 0.000007, epsilon = 0.000537
 h33bf                                  1      0.0000       0.00000       A     2.60034e-01     8.66332e-02    ;  uncertainty sigma = 0.000007, epsilon = 0.000537
 h34bf                                  1      0.0000       0.00000       A     2.60034e-01     8.66332e-02    ;  uncertainty sigma = 0.000007, epsilon = 0.000537
 h35bf                                  1      0.0000       0.00000       A     2.62591e-01     6.69694e-02    ;  uncertainty sigma = 0.000019, epsilon = 0.000383
 h36bf                                  1      0.0000       0.00000       A     2.42199e-01     8.66324e-02    ;  uncertainty sigma = 0.000024, epsilon = 0.001250
 h37bf                                  1      0.0000       0.00000       A     2.42199e-01     8.66324e-02    ;  uncertainty sigma = 0.000024, epsilon = 0.001250
 h38bf                                  1      0.0000       0.00000       A     2.59994e-01     8.68892e-02    ;  uncertainty sigma = 0.000026, epsilon = 0.000553
 h39bf                                  1      0.0000       0.00000       A     2.42194e-01     8.66543e-02    ;  uncertainty sigma = 0.000021, epsilon = 0.000863
 h40bf                                  1      0.0000       0.00000       A     2.42194e-01     8.66543e-02    ;  uncertainty sigma = 0.000021, epsilon = 0.000863
 h41bf                                  1      0.0000       0.00000       A     2.42194e-01     8.66545e-02    ;  uncertainty sigma = 0.000021, epsilon = 0.000863
 h42bf                                  1      0.0000       0.00000       A     2.42194e-01     8.66545e-02    ;  uncertainty sigma = 0.000021, epsilon = 0.000863
 h43bf                                  1      0.0000       0.00000       A     2.59994e-01     8.68892e-02    ;  uncertainty sigma = 0.000026, epsilon = 0.000553
 h44bf                                  1      0.0000       0.00000       A     2.42199e-01     8.66324e-02    ;  uncertainty sigma = 0.000024, epsilon = 0.001250
 h45bf                                  1      0.0000       0.00000       A     2.42199e-01     8.66324e-02    ;  uncertainty sigma = 0.000024, epsilon = 0.001250
 h46bf                                  1      0.0000       0.00000       A     2.62565e-01     6.70682e-02    ;  uncertainty sigma = 0.000010, epsilon = 0.000430
 h47bf                                  1      0.0000       0.00000       A     2.62565e-01     6.69658e-02    ;  uncertainty sigma = 0.000011, epsilon = 0.000532
 h48bf                                  1      0.0000       0.00000       A     2.62555e-01     6.71502e-02    ;  uncertainty sigma = 0.000013, epsilon = 0.000465
 h49bf                                  1      0.0000       0.00000       A     2.53604e-01     6.70805e-02    ;  uncertainty sigma = 0.000028, epsilon = 0.000600
 h50bf                                  1      0.0000       0.00000       A     2.53604e-01     6.70805e-02    ;  uncertainty sigma = 0.000028, epsilon = 0.000600
 h51bf                                  1      0.0000       0.00000       A     2.60091e-01     8.64014e-02    ;  uncertainty sigma = 0.000099, epsilon = 0.000808
 h52bf                                  1      0.0000       0.00000       A     2.60012e-01     8.65067e-02    ;  uncertainty sigma = 0.000024, epsilon = 0.000968
 h53bf                                  1      0.0000       0.00000       A     2.60012e-01     8.65067e-02    ;  uncertainty sigma = 0.000024, epsilon = 0.000968
 h54bf                                  1      0.0000       0.00000       A     2.60012e-01     8.65067e-02    ;  uncertainty sigma = 0.000024, epsilon = 0.000968
 h55bf                                  1      0.0000       0.00000       A     2.60012e-01     8.65067e-02    ;  uncertainty sigma = 0.000024, epsilon = 0.000968

[ moleculetype ]
;name             nrexcl
 MOL                   3

[ atoms ]
;       nr            type      resi   res      atom      cgnr      charge          mass ; qtot
         1            c0bf         1   UNL        c0         1    -0.15092       12.0110 ; qtot   -0.151
         2            c1bf         1   UNL        c1         2     0.48797       12.0110 ; qtot    0.337
         3            c2bf         1   UNL        c2         3    -0.40480       12.0110 ; qtot   -0.068
         4            c3bf         1   UNL        c3         4     0.52399       12.0110 ; qtot    0.456
         5            n4bf         1   UNL        n4         5    -0.78381       14.0070 ; qtot   -0.328
         6            c5bf         1   UNL        c5         6     0.91200       12.0110 ; qtot    0.584
         7            n6bf         1   UNL        n6         7    -0.78005       14.0070 ; qtot   -0.196
         8            n7bf         1   UNL        n7         8    -0.79107       14.0070 ; qtot   -0.987
         9            c8bf         1   UNL        c8         9     0.23406       12.0110 ; qtot   -0.753
        10            c9bf         1   UNL        c9        10    -0.09743       12.0110 ; qtot   -0.850
        11           c10bf         1   UNL       c10        11     0.11057       12.0110 ; qtot   -0.739
        12           n11bf         1   UNL       n11        12    -0.47239       14.0070 ; qtot   -1.212
        13           c12bf         1   UNL       c12        13     0.11057       12.0110 ; qtot   -1.101
        14           c13bf         1   UNL       c13        14    -0.09743       12.0110 ; qtot   -1.199
        15           c14bf         1   UNL       c14        15     0.23406       12.0110 ; qtot   -0.965
        16           c15bf         1   UNL       c15        16     0.70764       12.0110 ; qtot   -0.257
        17           o16bf         1   UNL       o16        17    -0.58293       15.9990 ; qtot   -0.840
        18           c17bf         1   UNL       c17        18    -0.15596       12.0110 ; qtot   -0.996
        19           c18bf         1   UNL       c18        19     0.16292       12.0110 ; qtot   -0.833
        20           f19bf         1   UNL       f19        20    -0.13494       18.9980 ; qtot   -0.968
        21           c20bf         1   UNL       c20        21    -0.15817       12.0110 ; qtot   -1.126
        22           c21bf         1   UNL       c21        22    -0.08197       12.0110 ; qtot   -1.208
        23           c22bf         1   UNL       c22        23    -0.13048       12.0110 ; qtot   -1.339
        24           c23bf         1   UNL       c23        24     0.07222       12.0110 ; qtot   -1.266
        25           n24bf         1   UNL       n24        25     0.30201       14.0070 ; qtot   -0.964
        26           n25bf         1   UNL       n25        26    -0.47243       14.0070 ; qtot   -1.437
        27           c26bf         1   UNL       c26        27     0.20275       12.0110 ; qtot   -1.234
        28           c27bf         1   UNL       c27        28     0.20275       12.0110 ; qtot   -1.031
        29           n28bf         1   UNL       n28        29    -0.47243       14.0070 ; qtot   -1.504
        30           c29bf         1   UNL       c29        30    -0.21683       12.0110 ; qtot   -1.721
        31           c30bf         1   UNL       c30        31    -0.10767       12.0110 ; qtot   -1.828
        32           c31bf         1   UNL       c31        32    -0.10767       12.0110 ; qtot   -1.936
        33           h32bf         1   UNL       h32        33     0.05844        1.0080 ; qtot   -1.877
        34           h33bf         1   UNL       h33        34     0.05844        1.0080 ; qtot   -1.819
        35           h34bf         1   UNL       h34        35     0.05844        1.0080 ; qtot   -1.761
        36           h35bf         1   UNL       h35        36     0.15337        1.0080 ; qtot   -1.607
        37           h36bf         1   UNL       h36        37     0.05891        1.0080 ; qtot   -1.548
        38           h37bf         1   UNL       h37        38     0.05891        1.0080 ; qtot   -1.489
        39           h38bf         1   UNL       h38        39     0.07237        1.0080 ; qtot   -1.417
        40           h39bf         1   UNL       h39        40     0.05981        1.0080 ; qtot   -1.357
        41           h40bf         1   UNL       h40        41     0.05981        1.0080 ; qtot   -1.297
        42           h41bf         1   UNL       h41        42     0.05981        1.0080 ; qtot   -1.238
        43           h42bf         1   UNL       h42        43     0.05981        1.0080 ; qtot   -1.178
        44           h43bf         1   UNL       h43        44     0.07237        1.0080 ; qtot   -1.105
        45           h44bf         1   UNL       h44        45     0.05891        1.0080 ; qtot   -1.046
        46           h45bf         1   UNL       h45        46     0.05891        1.0080 ; qtot   -0.988
        47           h46bf         1   UNL       h46        47     0.15846        1.0080 ; qtot   -0.829
        48           h47bf         1   UNL       h47        48     0.14574        1.0080 ; qtot   -0.683
        49           h48bf         1   UNL       h48        49     0.16350        1.0080 ; qtot   -0.520
        50           h49bf         1   UNL       h49        50     0.05496        1.0080 ; qtot   -0.465
        51           h50bf         1   UNL       h50        51     0.05496        1.0080 ; qtot   -0.410
        52           h51bf         1   UNL       h51        52     0.09785        1.0080 ; qtot   -0.312
        53           h52bf         1   UNL       h52        53     0.07801        1.0080 ; qtot   -0.234
        54           h53bf         1   UNL       h53        54     0.07801        1.0080 ; qtot   -0.156
        55           h54bf         1   UNL       h54        55     0.07801        1.0080 ; qtot   -0.078
        56           h55bf         1   UNL       h55        56     0.07806        1.0080 ; qtot   -0.000

[ bonds ]
;       ai        aj funct               r               k
         1         2     1        0.150634   258111.634180    ;  uncertainty r = 0.000039, k = 5.468280
         1        33     1        0.109443   310496.596143    ;  uncertainty r = 0.000015, k = 1.489684
         1        34     1        0.109443   310496.596143    ;  uncertainty r = 0.000015, k = 1.489684
         1        35     1        0.109443   310496.596143    ;  uncertainty r = 0.000015, k = 1.489684
         2         3     1        0.140275   444510.417480    ;  uncertainty r = 0.000079, k = 12.096843
         2         7     1        0.134373   464051.771094    ;  uncertainty r = 0.000046, k = 8.288163
         3         4     1        0.140818   416531.756152    ;  uncertainty r = 0.000062, k = 22.828913
         3        36     1        0.108808   344733.075049    ;  uncertainty r = 0.000051, k = 2.526610
         4         5     1        0.134891   452510.274512    ;  uncertainty r = 0.000121, k = 7.427415
         4        30     1        0.147710   241347.696582    ;  uncertainty r = 0.000120, k = 5.042893
         5         6     1        0.135912   491924.044824    ;  uncertainty r = 0.000098, k = 11.575823
         6         7     1        0.135483   496516.434277    ;  uncertainty r = 0.000067, k = 15.003710
         6         8     1        0.136851   316618.760596    ;  uncertainty r = 0.000061, k = 16.941639
         8         9     1        0.146379   223552.136377    ;  uncertainty r = 0.000061, k = 14.010766
         8        15     1        0.146379   223552.110840    ;  uncertainty r = 0.000061, k = 14.010761
         9        10     1        0.153378   218045.467334    ;  uncertainty r = 0.000067, k = 7.088220
         9        37     1        0.109551   306518.450781    ;  uncertainty r = 0.000069, k = 2.534282
         9        38     1        0.109551   306518.450781    ;  uncertainty r = 0.000069, k = 2.534282
        10        11     1        0.153480   216617.049121    ;  uncertainty r = 0.000023, k = 7.412723
        10        14     1        0.154451   200722.496875    ;  uncertainty r = 0.000080, k = 20.796785
        10        39     1        0.109350   305021.261133    ;  uncertainty r = 0.000029, k = 3.829702
        11        12     1        0.146976   241154.380664    ;  uncertainty r = 0.000047, k = 15.575172
        11        40     1        0.109439   307434.875488    ;  uncertainty r = 0.000026, k = 1.171544
        11        41     1        0.109439   307434.875488    ;  uncertainty r = 0.000026, k = 1.171544
        12        13     1        0.146976   241154.380664    ;  uncertainty r = 0.000047, k = 15.575144
        12        16     1        0.135088   335723.021045    ;  uncertainty r = 0.000166, k = 15.024462
        13        14     1        0.153480   216617.049121    ;  uncertainty r = 0.000023, k = 7.412681
        13        42     1        0.109439   307434.875488    ;  uncertainty r = 0.000026, k = 1.171521
        13        43     1        0.109439   307434.875488    ;  uncertainty r = 0.000026, k = 1.171521
        14        15     1        0.153378   218045.441797    ;  uncertainty r = 0.000067, k = 7.088228
        14        44     1        0.109350   305021.261133    ;  uncertainty r = 0.000029, k = 3.829660
        15        45     1        0.109551   306518.450781    ;  uncertainty r = 0.000069, k = 2.534287
        15        46     1        0.109551   306518.450781    ;  uncertainty r = 0.000069, k = 2.534287
        16        17     1        0.123492   739384.865723    ;  uncertainty r = 0.000039, k = 10.151716
        16        18     1        0.151093   272101.603271    ;  uncertainty r = 0.000079, k = 31.154101
        18        19     1        0.139399   331888.649609    ;  uncertainty r = 0.000087, k = 16.801357
        18        24     1        0.139529   322378.221484    ;  uncertainty r = 0.000112, k = 6.618765
        19        20     1        0.135284   339697.693359    ;  uncertainty r = 0.000139, k = 6.883764
        19        21     1        0.138876   355374.082080    ;  uncertainty r = 0.000029, k = 4.848304
        21        22     1        0.139230   385818.044873    ;  uncertainty r = 0.000031, k = 3.156029
        21        47     1        0.108754   335743.833789    ;  uncertainty r = 0.000014, k = 1.461762
        22        23     1        0.139117   371572.781299    ;  uncertainty r = 0.000042, k = 2.923689
        22        48     1        0.108705   332118.687891    ;  uncertainty r = 0.000011, k = 1.593644
        23        24     1        0.139176   333973.831201    ;  uncertainty r = 0.000089, k = 2.958672
        23        49     1        0.108623   333131.336426    ;  uncertainty r = 0.000019, k = 1.837628
        24        25     1        0.140554   317671.476855    ;  uncertainty r = 0.000102, k = 8.472881
        25        26     1        0.134456   229486.015723    ;  uncertainty r = 0.000080, k = 10.859863
        25        29     1        0.134456   229486.015723    ;  uncertainty r = 0.000080, k = 10.859863
        26        27     1        0.132965   463550.937305    ;  uncertainty r = 0.000052, k = 7.730519
        27        28     1        0.141781   249584.001709    ;  uncertainty r = 0.000103, k = 15.332670
        27        50     1        0.108418   339910.136572    ;  uncertainty r = 0.000037, k = 1.124302
        28        29     1        0.132965   463550.937305    ;  uncertainty r = 0.000052, k = 7.730519
        28        51     1        0.108418   339910.136572    ;  uncertainty r = 0.000037, k = 1.124302
        30        31     1        0.151821   204032.029639    ;  uncertainty r = 0.000052, k = 4.783523
        30        32     1        0.151821   204032.029639    ;  uncertainty r = 0.000052, k = 4.783523
        30        52     1        0.108622   310656.637207    ;  uncertainty r = 0.000059, k = 3.412791
        31        32     1        0.150180   222629.838135    ;  uncertainty r = 0.000062, k = 4.438825
        31        53     1        0.108635   312560.045654    ;  uncertainty r = 0.000022, k = 1.683388
        31        54     1        0.108635   312560.045654    ;  uncertainty r = 0.000022, k = 1.683388
        32        55     1        0.108635   312560.045654    ;  uncertainty r = 0.000022, k = 1.683388
        32        56     1        0.108635   312560.045654    ;  uncertainty r = 0.000022, k = 1.683401

[ angles ]
;       ai        aj        ak funct           theta             cth
         1         2         3     1      122.297714      414.421318    ;  uncertainty theta = 0.002825, k = 0.149463
         1         2         7     1      118.719139      506.533608    ;  uncertainty theta = 0.001988, k = 0.194256
         2         1        33     1      108.926468      385.449404    ;  uncertainty theta = 0.001425, k = 0.052643
         2         1        34     1      108.926468      385.449404    ;  uncertainty theta = 0.001425, k = 0.052643
         2         1        35     1      108.926468      385.449404    ;  uncertainty theta = 0.001425, k = 0.052643
         2         3         4     1      116.601074      464.301518    ;  uncertainty theta = 0.006708, k = 0.080565
         2         3        36     1      121.827843      276.733013    ;  uncertainty theta = 0.001331, k = 0.082376
         2         7         6     1      115.418533      409.426962    ;  uncertainty theta = 0.006372, k = 0.273828
         3         2         7     1      120.543518      659.946771    ;  uncertainty theta = 0.004784, k = 0.109078
         3         4         5     1      121.136841      629.648970    ;  uncertainty theta = 0.004141, k = 0.132918
         3         4        30     1      122.498924      399.195264    ;  uncertainty theta = 0.004931, k = 0.146795
         4         3        36     1      122.114182      269.392052    ;  uncertainty theta = 0.001344, k = 0.049677
         4         5         6     1      117.296371      408.402573    ;  uncertainty theta = 0.007569, k = 0.441606
         4        30        31     1      111.439980      309.512415    ;  uncertainty theta = 0.007876, k = 0.158302
         4        30        32     1      111.439980      309.512415    ;  uncertainty theta = 0.007876, k = 0.158302
         4        30        52     1      115.314308      277.360652    ;  uncertainty theta = 0.009813, k = 0.175426
         5         4        30     1      118.637001      496.277809    ;  uncertainty theta = 0.004546, k = 0.091710
         5         6         7     1      129.305573      728.199995    ;  uncertainty theta = 0.004789, k = 0.108575
         5         6         8     1      119.934952      568.666991    ;  uncertainty theta = 0.007730, k = 0.185408
         6         8         9     1      113.703918      431.072024    ;  uncertainty theta = 0.003879, k = 0.212164
         6         8        15     1      113.703918      431.072024    ;  uncertainty theta = 0.003879, k = 0.212163
         7         6         8     1      119.668480      551.335274    ;  uncertainty theta = 0.007537, k = 0.204682
         8         9        10     1      105.542747      834.402002    ;  uncertainty theta = 0.001819, k = 0.094596
         8         9        37     1      108.557312      456.298283    ;  uncertainty theta = 0.001214, k = 0.063006
         8         9        38     1      108.557312      456.298283    ;  uncertainty theta = 0.001214, k = 0.063006
         8        15        14     1      105.542747      834.402002    ;  uncertainty theta = 0.001819, k = 0.094597
         8        15        45     1      108.557312      456.298347    ;  uncertainty theta = 0.001214, k = 0.063006
         8        15        46     1      108.557312      456.298347    ;  uncertainty theta = 0.001214, k = 0.063006
         9         8        15     1      112.639381      488.827357    ;  uncertainty theta = 0.010199, k = 0.336333
         9        10        11     1      113.001526      495.885112    ;  uncertainty theta = 0.002967, k = 0.272650
         9        10        14     1      106.407143      696.228300    ;  uncertainty theta = 0.000820, k = 0.121960
         9        10        39     1      108.909218      387.529593    ;  uncertainty theta = 0.002428, k = 0.196423
        10         9        37     1      109.942749      401.681046    ;  uncertainty theta = 0.001744, k = 0.042629
        10         9        38     1      109.942749      401.681046    ;  uncertainty theta = 0.001744, k = 0.042629
        10        11        12     1      106.005104      800.142884    ;  uncertainty theta = 0.002837, k = 0.185313
        10        11        40     1      109.812805      398.157914    ;  uncertainty theta = 0.002056, k = 0.096133
        10        11        41     1      109.812805      398.157914    ;  uncertainty theta = 0.002056, k = 0.096133
        10        14        13     1      106.536072      683.535718    ;  uncertainty theta = 0.002057, k = 0.120116
        10        14        15     1      106.407143      696.228492    ;  uncertainty theta = 0.000820, k = 0.121960
        10        14        44     1      109.787766      408.249925    ;  uncertainty theta = 0.001833, k = 0.098421
        11        10        14     1      106.536072      683.535654    ;  uncertainty theta = 0.002057, k = 0.120117
        11        10        39     1      108.976547      381.109245    ;  uncertainty theta = 0.002391, k = 0.150517
        11        12        13     1      114.311745      540.101883    ;  uncertainty theta = 0.003229, k = 0.142692
        11        12        16     1      117.974327      368.182647    ;  uncertainty theta = 0.003980, k = 0.157584
        12        11        40     1      109.203384      457.892789    ;  uncertainty theta = 0.001598, k = 0.109127
        12        11        41     1      109.203384      457.892789    ;  uncertainty theta = 0.001598, k = 0.109127
        12        13        14     1      106.005104      800.142884    ;  uncertainty theta = 0.002837, k = 0.185312
        12        13        42     1      109.203384      457.892789    ;  uncertainty theta = 0.001598, k = 0.109127
        12        13        43     1      109.203384      457.892789    ;  uncertainty theta = 0.001598, k = 0.109127
        12        16        17     1      124.922256      740.345444    ;  uncertainty theta = 0.002458, k = 0.115631
        12        16        18     1      112.159889      368.733068    ;  uncertainty theta = 0.002788, k = 0.265066
        13        12        16     1      117.974327      368.182647    ;  uncertainty theta = 0.003980, k = 0.157584
        13        14        15     1      113.001526      495.885112    ;  uncertainty theta = 0.002967, k = 0.272650
        13        14        44     1      108.976547      381.109245    ;  uncertainty theta = 0.002391, k = 0.150517
        14        10        39     1      109.787766      408.249925    ;  uncertainty theta = 0.001833, k = 0.098421
        14        13        42     1      109.812805      398.157914    ;  uncertainty theta = 0.002056, k = 0.096133
        14        13        43     1      109.812805      398.157914    ;  uncertainty theta = 0.002056, k = 0.096133
        14        15        45     1      109.942749      401.681014    ;  uncertainty theta = 0.001744, k = 0.042629
        14        15        46     1      109.942749      401.681014    ;  uncertainty theta = 0.001744, k = 0.042629
        15        14        44     1      108.909218      387.529561    ;  uncertainty theta = 0.002428, k = 0.196423
        16        18        19     1      122.644753      394.633059    ;  uncertainty theta = 0.009716, k = 0.281698
        16        18        24     1      121.727440      360.483272    ;  uncertainty theta = 0.007459, k = 0.258991
        17        16        18     1      123.973495      474.716636    ;  uncertainty theta = 0.004986, k = 0.295298
        18        19        20     1      116.293533      481.718082    ;  uncertainty theta = 0.003628, k = 0.151958
        18        19        21     1      125.257851      358.228537    ;  uncertainty theta = 0.006392, k = 0.161234
        18        24        23     1      126.248352      383.964293    ;  uncertainty theta = 0.008470, k = 0.143041
        18        24        25     1      115.625549      424.401189    ;  uncertainty theta = 0.005276, k = 0.425221
        19        18        24     1      120.519875      451.018997    ;  uncertainty theta = 0.010533, k = 0.145475
        19        21        22     1      116.906998      480.293111    ;  uncertainty theta = 0.004692, k = 0.077746
        19        21        47     1      120.257713      280.421849    ;  uncertainty theta = 0.001644, k = 0.051464
        20        19        21     1      119.307655      515.150978    ;  uncertainty theta = 0.004276, k = 0.124646
        21        22        23     1      119.580154      501.480038    ;  uncertainty theta = 0.001152, k = 0.050795
        21        22        48     1      120.085129      283.076623    ;  uncertainty theta = 0.000551, k = 0.029815
        22        21        47     1      122.091469      282.690757    ;  uncertainty theta = 0.001292, k = 0.025850
        22        23        24     1      119.295853      511.815512    ;  uncertainty theta = 0.002200, k = 0.078353
        22        23        49     1      121.511391      292.121324    ;  uncertainty theta = 0.001401, k = 0.054323
        23        22        48     1      119.901108      278.613917    ;  uncertainty theta = 0.000633, k = 0.016225
        23        24        25     1      118.568016      453.799094    ;  uncertainty theta = 0.002843, k = 0.118727
        24        23        49     1      118.140259      263.598991    ;  uncertainty theta = 0.002697, k = 0.141621
        24        25        26     1      116.169716      430.317850    ;  uncertainty theta = 0.006654, k = 0.182017
        24        25        29     1      116.169716      430.317850    ;  uncertainty theta = 0.006654, k = 0.182017
        25        26        27     1      105.336914      920.571231    ;  uncertainty theta = 0.004509, k = 0.170853
        25        29        28     1      105.336914      920.571231    ;  uncertainty theta = 0.004509, k = 0.170853
        26        25        29     1      113.935104     1160.946488    ;  uncertainty theta = 0.004391, k = 0.191360
        26        27        28     1      108.874611      885.375859    ;  uncertainty theta = 0.003815, k = 0.097431
        26        27        50     1      119.790878      274.219077    ;  uncertainty theta = 0.003825, k = 0.115835
        27        28        29     1      108.874611      885.375859    ;  uncertainty theta = 0.003815, k = 0.097431
        27        28        51     1      127.065453      242.460680    ;  uncertainty theta = 0.004115, k = 0.077998
        28        27        50     1      127.065453      242.460680    ;  uncertainty theta = 0.004115, k = 0.077998
        29        28        51     1      119.790878      274.219077    ;  uncertainty theta = 0.003825, k = 0.115835
        30        31        32     1       58.543346      167.360000    ;  uncertainty theta = 0.013178, k = 0.000000
        30        31        53     1      108.224998      211.157595    ;  uncertainty theta = 0.004637, k = 0.139835
        30        31        54     1      108.224998      211.157595    ;  uncertainty theta = 0.004637, k = 0.139835
        30        32        31     1       58.543346      167.360000    ;  uncertainty theta = 0.013178, k = 0.000000
        30        32        55     1      108.224998      211.157595    ;  uncertainty theta = 0.004637, k = 0.139835
        30        32        56     1      108.224998      211.157595    ;  uncertainty theta = 0.004637, k = 0.139835
        31        30        32     1       64.263870      167.360000    ;  uncertainty theta = 0.032857, k = 0.000000
        31        30        52     1      107.727440      188.888422    ;  uncertainty theta = 0.007477, k = 0.294872
        31        32        55     1      109.556046      215.948788    ;  uncertainty theta = 0.003912, k = 0.069470
        31        32        56     1      109.556046      215.948788    ;  uncertainty theta = 0.003912, k = 0.069470
        32        30        52     1      107.727440      188.888422    ;  uncertainty theta = 0.007477, k = 0.294872
        32        31        53     1      109.556046      215.948788    ;  uncertainty theta = 0.003912, k = 0.069470
        32        31        54     1      109.556046      215.948788    ;  uncertainty theta = 0.003912, k = 0.069470
        33         1        34     1      107.152870      312.554555    ;  uncertainty theta = 0.001248, k = 0.032271
        33         1        35     1      107.152870      312.554555    ;  uncertainty theta = 0.001248, k = 0.032271
        34         1        35     1      107.152870      312.554555    ;  uncertainty theta = 0.001248, k = 0.032271
        37         9        38     1      105.123001      312.324913    ;  uncertainty theta = 0.002382, k = 0.114503
        40        11        41     1      105.371437      309.387890    ;  uncertainty theta = 0.003860, k = 0.079571
        42        13        43     1      105.371437      309.387890    ;  uncertainty theta = 0.003860, k = 0.079571
        45        15        46     1      105.123001      312.324913    ;  uncertainty theta = 0.002382, k = 0.114503
        53        31        54     1      114.260048      198.914961    ;  uncertainty theta = 0.003739, k = 0.043876
        55        32        56     1      114.260048      198.914961    ;  uncertainty theta = 0.003739, k = 0.043876

[ dihedrals ] ; propers for gromacs 4.5 or higher, use funct 9
;       ai        aj        ak        al funct           phase               k        pn
         1         2         3         4     9        0.000000        0.056517         1    ;  uncertainty k = 0.321102
         1         2         3         4     9      180.000000        7.917229         2    ;  uncertainty k = 0.368264
         1         2         3         4     9        0.000000        0.988060         3    ;  uncertainty k = 0.267871
         1         2         3         4     9      180.000000        1.391970         4    ;  uncertainty k = 0.217178
         1         2         3        36     9        0.000000       -0.280799         1    ;  uncertainty k = 0.314097
         1         2         3        36     9      180.000000        7.006582         2    ;  uncertainty k = 0.299819
         1         2         3        36     9        0.000000        0.636743         3    ;  uncertainty k = 0.311423
         1         2         3        36     9      180.000000        0.783822         4    ;  uncertainty k = 0.251107
         1         2         7         6     9        0.000000        0.032928         1    ;  uncertainty k = 0.980501
         1         2         7         6     9      180.000000       14.955952         2    ;  uncertainty k = 0.551612
         1         2         7         6     9        0.000000        2.380484         3    ;  uncertainty k = 0.361994
         1         2         7         6     9      180.000000        1.658332         4    ;  uncertainty k = 0.456685
         2         3         4         5     9        0.000000       -0.112553         1    ;  uncertainty k = 0.387032
         2         3         4         5     9      180.000000       10.795125         2    ;  uncertainty k = 0.593132
         2         3         4         5     9        0.000000       -1.257637         3    ;  uncertainty k = 0.899617
         2         3         4         5     9      180.000000        1.035936         4    ;  uncertainty k = 0.146108
         2         3         4        30     9        0.000000       -0.493078         1    ;  uncertainty k = 0.647604
         2         3         4        30     9      180.000000        6.712179         2    ;  uncertainty k = 0.583721
         2         3         4        30     9        0.000000        0.602362         3    ;  uncertainty k = 0.266977
         2         3         4        30     9      180.000000        1.335781         4    ;  uncertainty k = 0.126632
         2         7         6         5     9        0.000000       -0.524157         1    ;  uncertainty k = 0.859808
         2         7         6         5     9      180.000000        8.847270         2    ;  uncertainty k = 0.733097
         2         7         6         5     9        0.000000        0.745030         3    ;  uncertainty k = 0.629793
         2         7         6         5     9      180.000000        0.797155         4    ;  uncertainty k = 0.156091
         2         7         6         8     9        0.000000        0.521452         1    ;  uncertainty k = 1.016258
         2         7         6         8     9      180.000000       10.682266         2    ;  uncertainty k = 0.446840
         2         7         6         8     9        0.000000        1.724497         3    ;  uncertainty k = 0.348985
         2         7         6         8     9      180.000000        0.998198         4    ;  uncertainty k = 0.142872
         3         2         1        33     9        0.000000       -0.161397         1    ;  uncertainty k = 0.304988
         3         2         1        33     9      180.000000        2.280241         2    ;  uncertainty k = 0.227951
         3         2         1        33     9        0.000000        0.242033         3    ;  uncertainty k = 0.042240
         3         2         1        33     9      180.000000        0.143952         4    ;  uncertainty k = 0.019525
         3         2         1        34     9        0.000000       -0.161397         1    ;  uncertainty k = 0.304988
         3         2         1        34     9      180.000000        2.280241         2    ;  uncertainty k = 0.227951
         3         2         1        34     9        0.000000        0.242033         3    ;  uncertainty k = 0.042240
         3         2         1        34     9      180.000000        0.143952         4    ;  uncertainty k = 0.019525
         3         2         1        35     9        0.000000       -0.161397         1    ;  uncertainty k = 0.304988
         3         2         1        35     9      180.000000        2.280241         2    ;  uncertainty k = 0.227951
         3         2         1        35     9        0.000000        0.242033         3    ;  uncertainty k = 0.042240
         3         2         1        35     9      180.000000        0.143952         4    ;  uncertainty k = 0.019525
         3         2         7         6     9        0.000000       -0.373292         1    ;  uncertainty k = 0.484693
         3         2         7         6     9      180.000000       15.015498         2    ;  uncertainty k = 0.176533
         3         2         7         6     9        0.000000        0.225613         3    ;  uncertainty k = 0.485921
         3         2         7         6     9      180.000000        1.091289         4    ;  uncertainty k = 0.337185
         3         4         5         6     9        0.000000       -0.303665         1    ;  uncertainty k = 0.798268
         3         4         5         6     9      180.000000       14.436955         2    ;  uncertainty k = 0.115900
         3         4         5         6     9        0.000000        0.281535         3    ;  uncertainty k = 0.531694
         3         4         5         6     9      180.000000        1.010236         4    ;  uncertainty k = 0.309455
         3         4        30        31     9        0.000000        0.573980         1    ;  uncertainty k = 0.248062
         3         4        30        31     9      180.000000        2.537717         2    ;  uncertainty k = 0.238605
         3         4        30        31     9        0.000000        0.426578         3    ;  uncertainty k = 0.125925
         3         4        30        31     9      180.000000        0.323944         4    ;  uncertainty k = 0.089987
         3         4        30        32     9        0.000000        0.573980         1    ;  uncertainty k = 0.248062
         3         4        30        32     9      180.000000        2.537717         2    ;  uncertainty k = 0.238605
         3         4        30        32     9        0.000000        0.426578         3    ;  uncertainty k = 0.125925
         3         4        30        32     9      180.000000        0.323944         4    ;  uncertainty k = 0.089987
         3         4        30        52     9        0.000000       -0.502093         1    ;  uncertainty k = 0.964851
         3         4        30        52     9      180.000000        2.597929         2    ;  uncertainty k = 0.408631
         3         4        30        52     9        0.000000        0.610195         3    ;  uncertainty k = 0.229253
         3         4        30        52     9      180.000000        0.152694         4    ;  uncertainty k = 0.139751
         4         3         2         7     9        0.000000       -0.215026         1    ;  uncertainty k = 0.344406
         4         3         2         7     9      180.000000       12.181048         2    ;  uncertainty k = 0.433491
         4         3         2         7     9        0.000000       -1.290044         3    ;  uncertainty k = 0.764385
         4         3         2         7     9      180.000000        0.973519         4    ;  uncertainty k = 0.133577
         4         5         6         7     9        0.000000       -0.529185         1    ;  uncertainty k = 0.430324
         4         5         6         7     9      180.000000        8.795038         2    ;  uncertainty k = 0.741877
         4         5         6         7     9        0.000000        0.769151         3    ;  uncertainty k = 0.579743
         4         5         6         7     9      180.000000        0.788067         4    ;  uncertainty k = 0.100801
         4         5         6         8     9        0.000000        0.622549         1    ;  uncertainty k = 0.694894
         4         5         6         8     9      180.000000       10.614414         2    ;  uncertainty k = 0.404859
         4         5         6         8     9        0.000000        1.674932         3    ;  uncertainty k = 0.191531
         4         5         6         8     9      180.000000        1.000235         4    ;  uncertainty k = 0.170512
         4        30        31        32     9        0.000000       54.262028         1    ;  uncertainty k = 0.399006
         4        30        31        32     9      180.000000        0.369418         2    ;  uncertainty k = 2.718158
         4        30        31        32     9        0.000000       -9.735260         3    ;  uncertainty k = 1.466718
         4        30        31        32     9      180.000000        6.195198         4    ;  uncertainty k = 0.217448
         4        30        31        53     9        0.000000       -0.849592         1    ;  uncertainty k = 2.535050
         4        30        31        53     9      180.000000       -1.750650         2    ;  uncertainty k = 0.994755
         4        30        31        53     9        0.000000        0.761696         3    ;  uncertainty k = 0.561426
         4        30        31        53     9      180.000000       -0.826004         4    ;  uncertainty k = 0.152167
         4        30        31        54     9        0.000000       -0.849592         1    ;  uncertainty k = 2.535050
         4        30        31        54     9      180.000000       -1.750650         2    ;  uncertainty k = 0.994755
         4        30        31        54     9        0.000000        0.761696         3    ;  uncertainty k = 0.561426
         4        30        31        54     9      180.000000       -0.826004         4    ;  uncertainty k = 0.152167
         4        30        32        31     9        0.000000       54.262028         1    ;  uncertainty k = 0.399006
         4        30        32        31     9      180.000000        0.369418         2    ;  uncertainty k = 2.718158
         4        30        32        31     9        0.000000       -9.735260         3    ;  uncertainty k = 1.466718
         4        30        32        31     9      180.000000        6.195198         4    ;  uncertainty k = 0.217448
         4        30        32        55     9        0.000000       -0.849592         1    ;  uncertainty k = 2.535050
         4        30        32        55     9      180.000000       -1.750650         2    ;  uncertainty k = 0.994755
         4        30        32        55     9        0.000000        0.761696         3    ;  uncertainty k = 0.561426
         4        30        32        55     9      180.000000       -0.826004         4    ;  uncertainty k = 0.152167
         4        30        32        56     9        0.000000       -0.849592         1    ;  uncertainty k = 2.535050
         4        30        32        56     9      180.000000       -1.750650         2    ;  uncertainty k = 0.994755
         4        30        32        56     9        0.000000        0.761696         3    ;  uncertainty k = 0.561426
         4        30        32        56     9      180.000000       -0.826004         4    ;  uncertainty k = 0.152167
         5         4         3        36     9        0.000000        0.197333         1    ;  uncertainty k = 0.496267
         5         4         3        36     9      180.000000        8.321239         2    ;  uncertainty k = 0.413515
         5         4         3        36     9        0.000000        1.044506         3    ;  uncertainty k = 0.332396
         5         4         3        36     9      180.000000        1.540938         4    ;  uncertainty k = 0.074839
         5         4        30        31     9        0.000000        0.297432         1    ;  uncertainty k = 0.252337
         5         4        30        31     9      180.000000        3.445541         2    ;  uncertainty k = 0.166789
         5         4        30        31     9        0.000000        0.910216         3    ;  uncertainty k = 0.312459
         5         4        30        31     9      180.000000        0.416574         4    ;  uncertainty k = 0.063047
         5         4        30        32     9        0.000000        0.297432         1    ;  uncertainty k = 0.252337
         5         4        30        32     9      180.000000        3.445541         2    ;  uncertainty k = 0.166789
         5         4        30        32     9        0.000000        0.910216         3    ;  uncertainty k = 0.312459
         5         4        30        32     9      180.000000        0.416574         4    ;  uncertainty k = 0.063047
         5         4        30        52     9        0.000000        2.069082         1    ;  uncertainty k = 0.562622
         5         4        30        52     9      180.000000        3.644717         2    ;  uncertainty k = 0.583774
         5         4        30        52     9        0.000000        1.043225         3    ;  uncertainty k = 0.406635
         5         4        30        52     9      180.000000        0.377737         4    ;  uncertainty k = 0.142863
         5         6         8         9     9        0.000000        5.381094         1    ;  uncertainty k = 0.498127
         5         6         8         9     9      180.000000       11.942007         2    ;  uncertainty k = 0.172717
         5         6         8         9     9        0.000000        0.123667         3    ;  uncertainty k = 0.212380
         5         6         8         9     9      180.000000       -0.337663         4    ;  uncertainty k = 0.079243
         5         6         8        15     9        0.000000        5.381093         1    ;  uncertainty k = 0.498127
         5         6         8        15     9      180.000000       11.942006         2    ;  uncertainty k = 0.172716
         5         6         8        15     9        0.000000        0.123668         3    ;  uncertainty k = 0.212379
         5         6         8        15     9      180.000000       -0.337664         4    ;  uncertainty k = 0.079243
         6         5         4        30     9        0.000000        0.090697         1    ;  uncertainty k = 0.723876
         6         5         4        30     9      180.000000       15.129248         2    ;  uncertainty k = 0.445435
         6         5         4        30     9        0.000000        1.963983         3    ;  uncertainty k = 0.534365
         6         5         4        30     9      180.000000        1.500936         4    ;  uncertainty k = 0.477184
         6         8         9        10     9        0.000000       -5.445519         1    ;  uncertainty k = 1.816151
         6         8         9        10     9      180.000000        0.690120         2    ;  uncertainty k = 0.702715
         6         8         9        10     9        0.000000        0.815414         3    ;  uncertainty k = 0.281851
         6         8         9        10     9      180.000000        0.313577         4    ;  uncertainty k = 0.127309
         6         8         9        37     9        0.000000       -0.215860         1    ;  uncertainty k = 0.757326
         6         8         9        37     9      180.000000        1.019989         2    ;  uncertainty k = 0.413853
         6         8         9        37     9        0.000000        0.583342         3    ;  uncertainty k = 0.126409
         6         8         9        37     9      180.000000        0.380356         4    ;  uncertainty k = 0.104847
         6         8         9        38     9        0.000000       -0.215860         1    ;  uncertainty k = 0.757326
         6         8         9        38     9      180.000000        1.019989         2    ;  uncertainty k = 0.413853
         6         8         9        38     9        0.000000        0.583342         3    ;  uncertainty k = 0.126409
         6         8         9        38     9      180.000000        0.380356         4    ;  uncertainty k = 0.104847
         6         8        15        14     9        0.000000       -5.445519         1    ;  uncertainty k = 1.816150
         6         8        15        14     9      180.000000        0.690121         2    ;  uncertainty k = 0.702714
         6         8        15        14     9        0.000000        0.815415         3    ;  uncertainty k = 0.281852
         6         8        15        14     9      180.000000        0.313577         4    ;  uncertainty k = 0.127309
         6         8        15        45     9        0.000000       -0.215862         1    ;  uncertainty k = 0.757327
         6         8        15        45     9      180.000000        1.019990         2    ;  uncertainty k = 0.413854
         6         8        15        45     9        0.000000        0.583342         3    ;  uncertainty k = 0.126409
         6         8        15        45     9      180.000000        0.380356         4    ;  uncertainty k = 0.104847
         6         8        15        46     9        0.000000       -0.215862         1    ;  uncertainty k = 0.757327
         6         8        15        46     9      180.000000        1.019990         2    ;  uncertainty k = 0.413854
         6         8        15        46     9        0.000000        0.583342         3    ;  uncertainty k = 0.126409
         6         8        15        46     9      180.000000        0.380356         4    ;  uncertainty k = 0.104847
         7         2         1        33     9        0.000000        0.589597         1    ;  uncertainty k = 0.248959
         7         2         1        33     9      180.000000        3.630445         2    ;  uncertainty k = 0.078213
         7         2         1        33     9        0.000000        0.497910         3    ;  uncertainty k = 0.028975
         7         2         1        33     9      180.000000        0.275764         4    ;  uncertainty k = 0.043573
         7         2         1        34     9        0.000000        0.589597         1    ;  uncertainty k = 0.248959
         7         2         1        34     9      180.000000        3.630445         2    ;  uncertainty k = 0.078213
         7         2         1        34     9        0.000000        0.497910         3    ;  uncertainty k = 0.028975
         7         2         1        34     9      180.000000        0.275764         4    ;  uncertainty k = 0.043573
         7         2         1        35     9        0.000000        0.589597         1    ;  uncertainty k = 0.248959
         7         2         1        35     9      180.000000        3.630445         2    ;  uncertainty k = 0.078213
         7         2         1        35     9        0.000000        0.497910         3    ;  uncertainty k = 0.028975
         7         2         1        35     9      180.000000        0.275764         4    ;  uncertainty k = 0.043573
         7         2         3        36     9        0.000000        0.183324         1    ;  uncertainty k = 0.429251
         7         2         3        36     9      180.000000        8.611255         2    ;  uncertainty k = 0.399572
         7         2         3        36     9        0.000000        1.156076         3    ;  uncertainty k = 0.299213
         7         2         3        36     9      180.000000        1.641339         4    ;  uncertainty k = 0.077821
         7         6         8         9     9        0.000000        5.074600         1    ;  uncertainty k = 0.464597
         7         6         8         9     9      180.000000       11.697865         2    ;  uncertainty k = 0.132934
         7         6         8         9     9        0.000000        0.170586         3    ;  uncertainty k = 0.204170
         7         6         8         9     9      180.000000       -0.333068         4    ;  uncertainty k = 0.059179
         7         6         8        15     9        0.000000        5.074599         1    ;  uncertainty k = 0.464597
         7         6         8        15     9      180.000000       11.697865         2    ;  uncertainty k = 0.132934
         7         6         8        15     9        0.000000        0.170587         3    ;  uncertainty k = 0.204169
         7         6         8        15     9      180.000000       -0.333069         4    ;  uncertainty k = 0.059178
         8         9        10        11     9        0.000000       -1.993480         1    ;  uncertainty k = 1.121329
         8         9        10        11     9      180.000000        0.981650         2    ;  uncertainty k = 0.869242
         8         9        10        11     9        0.000000        1.655542         3    ;  uncertainty k = 0.385065
         8         9        10        11     9      180.000000       -0.171668         4    ;  uncertainty k = 0.237539
         8         9        10        14     9        0.000000       -0.250025         1    ;  uncertainty k = 1.665955
         8         9        10        14     9      180.000000        6.168704         2    ;  uncertainty k = 1.104705
         8         9        10        14     9        0.000000        0.670622         3    ;  uncertainty k = 0.345302
         8         9        10        14     9      180.000000       -1.490831         4    ;  uncertainty k = 0.510343
         8         9        10        39     9        0.000000        0.573123         1    ;  uncertainty k = 0.858859
         8         9        10        39     9      180.000000        1.328619         2    ;  uncertainty k = 0.509877
         8         9        10        39     9        0.000000        1.171269         3    ;  uncertainty k = 0.217364
         8         9        10        39     9      180.000000       -0.072867         4    ;  uncertainty k = 0.185420
         8        15        14        10     9        0.000000       -0.250024         1    ;  uncertainty k = 1.665957
         8        15        14        10     9      180.000000        6.168707         2    ;  uncertainty k = 1.104703
         8        15        14        10     9        0.000000        0.670622         3    ;  uncertainty k = 0.345302
         8        15        14        10     9      180.000000       -1.490831         4    ;  uncertainty k = 0.510343
         8        15        14        13     9        0.000000       -1.993480         1    ;  uncertainty k = 1.121329
         8        15        14        13     9      180.000000        0.981650         2    ;  uncertainty k = 0.869242
         8        15        14        13     9        0.000000        1.655542         3    ;  uncertainty k = 0.385065
         8        15        14        13     9      180.000000       -0.171668         4    ;  uncertainty k = 0.237539
         8        15        14        44     9        0.000000        0.573124         1    ;  uncertainty k = 0.858860
         8        15        14        44     9      180.000000        1.328618         2    ;  uncertainty k = 0.509876
         8        15        14        44     9        0.000000        1.171268         3    ;  uncertainty k = 0.217363
         8        15        14        44     9      180.000000       -0.072867         4    ;  uncertainty k = 0.185420
         9         8        15        14     9        0.000000        0.415716         1    ;  uncertainty k = 1.024138
         9         8        15        14     9      180.000000        1.421635         2    ;  uncertainty k = 1.180168
         9         8        15        14     9        0.000000        0.861364         3    ;  uncertainty k = 0.330055
         9         8        15        14     9      180.000000        0.011083         4    ;  uncertainty k = 0.168444
         9         8        15        45     9        0.000000       -2.111305         1    ;  uncertainty k = 0.710504
         9         8        15        45     9      180.000000        1.273717         2    ;  uncertainty k = 0.391210
         9         8        15        45     9        0.000000        1.146656         3    ;  uncertainty k = 0.078181
         9         8        15        45     9      180.000000        0.249516         4    ;  uncertainty k = 0.124346
         9         8        15        46     9        0.000000       -2.111305         1    ;  uncertainty k = 0.710504
         9         8        15        46     9      180.000000        1.273717         2    ;  uncertainty k = 0.391210
         9         8        15        46     9        0.000000        1.146656         3    ;  uncertainty k = 0.078181
         9         8        15        46     9      180.000000        0.249516         4    ;  uncertainty k = 0.124346
         9        10        11        12     9        0.000000       -2.607420         1    ;  uncertainty k = 0.995424
         9        10        11        12     9      180.000000        0.022076         2    ;  uncertainty k = 0.727033
         9        10        11        12     9        0.000000        1.612970         3    ;  uncertainty k = 0.235291
         9        10        11        12     9      180.000000       -0.185713         4    ;  uncertainty k = 0.112586
         9        10        11        40     9        0.000000       -0.498818         1    ;  uncertainty k = 0.107247
         9        10        11        40     9      180.000000       -0.409706         2    ;  uncertainty k = 0.197166
         9        10        11        40     9        0.000000        0.564543         3    ;  uncertainty k = 0.186998
         9        10        11        40     9      180.000000       -0.072177         4    ;  uncertainty k = 0.062323
         9        10        11        41     9        0.000000       -0.498818         1    ;  uncertainty k = 0.107247
         9        10        11        41     9      180.000000       -0.409706         2    ;  uncertainty k = 0.197166
         9        10        11        41     9        0.000000        0.564543         3    ;  uncertainty k = 0.186998
         9        10        11        41     9      180.000000       -0.072177         4    ;  uncertainty k = 0.062323
         9        10        14        13     9        0.000000       -3.847150         1    ;  uncertainty k = 0.842081
         9        10        14        13     9      180.000000        0.994502         2    ;  uncertainty k = 1.017626
         9        10        14        13     9        0.000000        1.189094         3    ;  uncertainty k = 0.581588
         9        10        14        13     9      180.000000       -0.416044         4    ;  uncertainty k = 0.334399
         9        10        14        15     9        0.000000       -3.896618         1    ;  uncertainty k = 1.087275
         9        10        14        15     9      180.000000        1.035025         2    ;  uncertainty k = 1.026286
         9        10        14        15     9        0.000000        1.207838         3    ;  uncertainty k = 0.671623
         9        10        14        15     9      180.000000       -0.436931         4    ;  uncertainty k = 0.343366
         9        10        14        44     9        0.000000       -1.223112         1    ;  uncertainty k = 0.611377
         9        10        14        44     9      180.000000        0.489634         2    ;  uncertainty k = 0.414978
         9        10        14        44     9        0.000000        0.997353         3    ;  uncertainty k = 0.241670
         9        10        14        44     9      180.000000        0.066778         4    ;  uncertainty k = 0.087125
        10         9         8        15     9        0.000000        0.415714         1    ;  uncertainty k = 1.024139
        10         9         8        15     9      180.000000        1.421636         2    ;  uncertainty k = 1.180170
        10         9         8        15     9        0.000000        0.861364         3    ;  uncertainty k = 0.330056
        10         9         8        15     9      180.000000        0.011083         4    ;  uncertainty k = 0.168444
        10        11        12        13     9        0.000000       -0.578347         1    ;  uncertainty k = 0.919747
        10        11        12        13     9      180.000000        0.242792         2    ;  uncertainty k = 0.701024
        10        11        12        13     9        0.000000        0.797027         3    ;  uncertainty k = 0.218418
        10        11        12        13     9      180.000000        0.154107         4    ;  uncertainty k = 0.246781
        10        11        12        16     9        0.000000       -0.209381         1    ;  uncertainty k = 0.966461
        10        11        12        16     9      180.000000       -0.541701         2    ;  uncertainty k = 0.373893
        10        11        12        16     9        0.000000        0.202801         3    ;  uncertainty k = 0.362931
        10        11        12        16     9      180.000000        0.702312         4    ;  uncertainty k = 0.132281
        10        14        13        12     9        0.000000       -0.736764         1    ;  uncertainty k = 0.633515
        10        14        13        12     9      180.000000        6.025412         2    ;  uncertainty k = 1.000861
        10        14        13        12     9        0.000000        0.435197         3    ;  uncertainty k = 0.297546
        10        14        13        12     9      180.000000       -1.170163         4    ;  uncertainty k = 0.204855
        10        14        13        42     9        0.000000        0.480411         1    ;  uncertainty k = 0.492791
        10        14        13        42     9      180.000000       -1.104496         2    ;  uncertainty k = 0.672329
        10        14        13        42     9        0.000000       -0.270073         3    ;  uncertainty k = 0.170671
        10        14        13        42     9      180.000000       -0.013160         4    ;  uncertainty k = 0.174221
        10        14        13        43     9        0.000000        0.480411         1    ;  uncertainty k = 0.492791
        10        14        13        43     9      180.000000       -1.104496         2    ;  uncertainty k = 0.672329
        10        14        13        43     9        0.000000       -0.270073         3    ;  uncertainty k = 0.170671
        10        14        13        43     9      180.000000       -0.013160         4    ;  uncertainty k = 0.174221
        10        14        15        45     9        0.000000        0.646621         1    ;  uncertainty k = 0.517783
        10        14        15        45     9      180.000000       -1.099688         2    ;  uncertainty k = 0.743824
        10        14        15        45     9        0.000000       -0.334779         3    ;  uncertainty k = 0.213643
        10        14        15        45     9      180.000000       -0.018734         4    ;  uncertainty k = 0.206092
        10        14        15        46     9        0.000000        0.646621         1    ;  uncertainty k = 0.517783
        10        14        15        46     9      180.000000       -1.099688         2    ;  uncertainty k = 0.743824
        10        14        15        46     9        0.000000       -0.334779         3    ;  uncertainty k = 0.213643
        10        14        15        46     9      180.000000       -0.018734         4    ;  uncertainty k = 0.206092
        11        10         9        37     9        0.000000       -0.670734         1    ;  uncertainty k = 0.233995
        11        10         9        37     9      180.000000       -0.386310         2    ;  uncertainty k = 0.258590
        11        10         9        37     9        0.000000        0.557637         3    ;  uncertainty k = 0.179621
        11        10         9        37     9      180.000000       -0.081826         4    ;  uncertainty k = 0.095492
        11        10         9        38     9        0.000000       -0.670734         1    ;  uncertainty k = 0.233995
        11        10         9        38     9      180.000000       -0.386310         2    ;  uncertainty k = 0.258590
        11        10         9        38     9        0.000000        0.557637         3    ;  uncertainty k = 0.179621
        11        10         9        38     9      180.000000       -0.081826         4    ;  uncertainty k = 0.095492
        11        10        14        13     9        0.000000       -3.717091         1    ;  uncertainty k = 0.646014
        11        10        14        13     9      180.000000        0.952705         2    ;  uncertainty k = 0.984304
        11        10        14        13     9        0.000000        1.178983         3    ;  uncertainty k = 0.499657
        11        10        14        13     9      180.000000       -0.410261         4    ;  uncertainty k = 0.338854
        11        10        14        15     9        0.000000       -3.847151         1    ;  uncertainty k = 0.842082
        11        10        14        15     9      180.000000        0.994504         2    ;  uncertainty k = 1.017625
        11        10        14        15     9        0.000000        1.189094         3    ;  uncertainty k = 0.581588
        11        10        14        15     9      180.000000       -0.416044         4    ;  uncertainty k = 0.334399
        11        10        14        44     9        0.000000       -1.291634         1    ;  uncertainty k = 0.560343
        11        10        14        44     9      180.000000        0.594321         2    ;  uncertainty k = 0.368266
        11        10        14        44     9        0.000000        1.030260         3    ;  uncertainty k = 0.246250
        11        10        14        44     9      180.000000        0.081405         4    ;  uncertainty k = 0.059901
        11        12        13        14     9        0.000000       -0.578347         1    ;  uncertainty k = 0.919747
        11        12        13        14     9      180.000000        0.242792         2    ;  uncertainty k = 0.701025
        11        12        13        14     9        0.000000        0.797027         3    ;  uncertainty k = 0.218419
        11        12        13        14     9      180.000000        0.154107         4    ;  uncertainty k = 0.246781
        11        12        13        42     9        0.000000       -1.810377         1    ;  uncertainty k = 0.576097
        11        12        13        42     9      180.000000        1.086382         2    ;  uncertainty k = 0.426528
        11        12        13        42     9        0.000000        1.250141         3    ;  uncertainty k = 0.136647
        11        12        13        42     9      180.000000        0.301768         4    ;  uncertainty k = 0.117464
        11        12        13        43     9        0.000000       -1.810377         1    ;  uncertainty k = 0.576097
        11        12        13        43     9      180.000000        1.086382         2    ;  uncertainty k = 0.426528
        11        12        13        43     9        0.000000        1.250141         3    ;  uncertainty k = 0.136647
        11        12        13        43     9      180.000000        0.301768         4    ;  uncertainty k = 0.117464
        11        12        16        17     9        0.000000        6.357003         1    ;  uncertainty k = 0.547606
        11        12        16        17     9      180.000000       16.962734         2    ;  uncertainty k = 0.212954
        11        12        16        17     9        0.000000        0.267170         3    ;  uncertainty k = 0.202910
        11        12        16        17     9      180.000000       -1.190649         4    ;  uncertainty k = 0.124612
        11        12        16        18     9        0.000000        3.407849         1    ;  uncertainty k = 1.339110
        11        12        16        18     9      180.000000        8.996075         2    ;  uncertainty k = 0.412445
        11        12        16        18     9        0.000000        1.595044         3    ;  uncertainty k = 0.230309
        11        12        16        18     9      180.000000       -0.020267         4    ;  uncertainty k = 0.371981
        12        11        10        14     9        0.000000       -0.736762         1    ;  uncertainty k = 0.633517
        12        11        10        14     9      180.000000        6.025413         2    ;  uncertainty k = 1.000861
        12        11        10        14     9        0.000000        0.435196         3    ;  uncertainty k = 0.297545
        12        11        10        14     9      180.000000       -1.170163         4    ;  uncertainty k = 0.204856
        12        11        10        39     9        0.000000        0.123161         1    ;  uncertainty k = 0.632773
        12        11        10        39     9      180.000000        0.836162         2    ;  uncertainty k = 0.434791
        12        11        10        39     9        0.000000        1.098159         3    ;  uncertainty k = 0.161086
        12        11        10        39     9      180.000000       -0.066245         4    ;  uncertainty k = 0.104331
        12        13        14        15     9        0.000000       -2.607419         1    ;  uncertainty k = 0.995424
        12        13        14        15     9      180.000000        0.022076         2    ;  uncertainty k = 0.727033
        12        13        14        15     9        0.000000        1.612970         3    ;  uncertainty k = 0.235290
        12        13        14        15     9      180.000000       -0.185713         4    ;  uncertainty k = 0.112586
        12        13        14        44     9        0.000000        0.123160         1    ;  uncertainty k = 0.632774
        12        13        14        44     9      180.000000        0.836161         2    ;  uncertainty k = 0.434791
        12        13        14        44     9        0.000000        1.098159         3    ;  uncertainty k = 0.161086
        12        13        14        44     9      180.000000       -0.066245         4    ;  uncertainty k = 0.104331
        12        16        18        19     9        0.000000        1.851367         1    ;  uncertainty k = 1.259576
        12        16        18        19     9      180.000000        5.752965         2    ;  uncertainty k = 0.175508
        12        16        18        19     9        0.000000        0.162215         3    ;  uncertainty k = 0.318225
        12        16        18        19     9      180.000000        0.484794         4    ;  uncertainty k = 0.155871
        12        16        18        24     9        0.000000        3.709916         1    ;  uncertainty k = 1.132205
        12        16        18        24     9      180.000000        5.907216         2    ;  uncertainty k = 0.295098
        12        16        18        24     9        0.000000        0.162296         3    ;  uncertainty k = 0.106376
        12        16        18        24     9      180.000000        0.490410         4    ;  uncertainty k = 0.140372
        13        12        11        40     9        0.000000       -1.810377         1    ;  uncertainty k = 0.576098
        13        12        11        40     9      180.000000        1.086382         2    ;  uncertainty k = 0.426526
        13        12        11        40     9        0.000000        1.250141         3    ;  uncertainty k = 0.136647
        13        12        11        40     9      180.000000        0.301768         4    ;  uncertainty k = 0.117464
        13        12        11        41     9        0.000000       -1.810377         1    ;  uncertainty k = 0.576098
        13        12        11        41     9      180.000000        1.086382         2    ;  uncertainty k = 0.426526
        13        12        11        41     9        0.000000        1.250141         3    ;  uncertainty k = 0.136647
        13        12        11        41     9      180.000000        0.301768         4    ;  uncertainty k = 0.117464
        13        12        16        17     9        0.000000        6.357001         1    ;  uncertainty k = 0.547606
        13        12        16        17     9      180.000000       16.962734         2    ;  uncertainty k = 0.212955
        13        12        16        17     9        0.000000        0.267170         3    ;  uncertainty k = 0.202910
        13        12        16        17     9      180.000000       -1.190649         4    ;  uncertainty k = 0.124611
        13        12        16        18     9        0.000000        3.407847         1    ;  uncertainty k = 1.339110
        13        12        16        18     9      180.000000        8.996074         2    ;  uncertainty k = 0.412445
        13        12        16        18     9        0.000000        1.595043         3    ;  uncertainty k = 0.230310
        13        12        16        18     9      180.000000       -0.020268         4    ;  uncertainty k = 0.371981
        13        14        10        39     9        0.000000       -1.291633         1    ;  uncertainty k = 0.560343
        13        14        10        39     9      180.000000        0.594321         2    ;  uncertainty k = 0.368268
        13        14        10        39     9        0.000000        1.030260         3    ;  uncertainty k = 0.246250
        13        14        10        39     9      180.000000        0.081405         4    ;  uncertainty k = 0.059900
        13        14        15        45     9        0.000000       -0.670733         1    ;  uncertainty k = 0.233996
        13        14        15        45     9      180.000000       -0.386309         2    ;  uncertainty k = 0.258591
        13        14        15        45     9        0.000000        0.557638         3    ;  uncertainty k = 0.179621
        13        14        15        45     9      180.000000       -0.081826         4    ;  uncertainty k = 0.095492
        13        14        15        46     9        0.000000       -0.670733         1    ;  uncertainty k = 0.233996
        13        14        15        46     9      180.000000       -0.386309         2    ;  uncertainty k = 0.258591
        13        14        15        46     9        0.000000        0.557638         3    ;  uncertainty k = 0.179621
        13        14        15        46     9      180.000000       -0.081826         4    ;  uncertainty k = 0.095492
        14        10         9        37     9        0.000000        0.646621         1    ;  uncertainty k = 0.517781
        14        10         9        37     9      180.000000       -1.099689         2    ;  uncertainty k = 0.743823
        14        10         9        37     9        0.000000       -0.334778         3    ;  uncertainty k = 0.213644
        14        10         9        37     9      180.000000       -0.018734         4    ;  uncertainty k = 0.206091
        14        10         9        38     9        0.000000        0.646621         1    ;  uncertainty k = 0.517781
        14        10         9        38     9      180.000000       -1.099689         2    ;  uncertainty k = 0.743823
        14        10         9        38     9        0.000000       -0.334778         3    ;  uncertainty k = 0.213644
        14        10         9        38     9      180.000000       -0.018734         4    ;  uncertainty k = 0.206091
        14        10        11        40     9        0.000000        0.480411         1    ;  uncertainty k = 0.492791
        14        10        11        40     9      180.000000       -1.104495         2    ;  uncertainty k = 0.672328
        14        10        11        40     9        0.000000       -0.270073         3    ;  uncertainty k = 0.170671
        14        10        11        40     9      180.000000       -0.013161         4    ;  uncertainty k = 0.174221
        14        10        11        41     9        0.000000        0.480411         1    ;  uncertainty k = 0.492791
        14        10        11        41     9      180.000000       -1.104495         2    ;  uncertainty k = 0.672328
        14        10        11        41     9        0.000000       -0.270073         3    ;  uncertainty k = 0.170671
        14        10        11        41     9      180.000000       -0.013161         4    ;  uncertainty k = 0.174221
        14        13        12        16     9        0.000000       -0.209380         1    ;  uncertainty k = 0.966459
        14        13        12        16     9      180.000000       -0.541701         2    ;  uncertainty k = 0.373894
        14        13        12        16     9        0.000000        0.202801         3    ;  uncertainty k = 0.362931
        14        13        12        16     9      180.000000        0.702311         4    ;  uncertainty k = 0.132281
        15         8         9        37     9        0.000000       -2.111305         1    ;  uncertainty k = 0.710503
        15         8         9        37     9      180.000000        1.273717         2    ;  uncertainty k = 0.391210
        15         8         9        37     9        0.000000        1.146655         3    ;  uncertainty k = 0.078182
        15         8         9        37     9      180.000000        0.249516         4    ;  uncertainty k = 0.124346
        15         8         9        38     9        0.000000       -2.111305         1    ;  uncertainty k = 0.710503
        15         8         9        38     9      180.000000        1.273717         2    ;  uncertainty k = 0.391210
        15         8         9        38     9        0.000000        1.146655         3    ;  uncertainty k = 0.078182
        15         8         9        38     9      180.000000        0.249516         4    ;  uncertainty k = 0.124346
        15        14        10        39     9        0.000000       -1.223110         1    ;  uncertainty k = 0.611378
        15        14        10        39     9      180.000000        0.489635         2    ;  uncertainty k = 0.414979
        15        14        10        39     9        0.000000        0.997353         3    ;  uncertainty k = 0.241669
        15        14        10        39     9      180.000000        0.066778         4    ;  uncertainty k = 0.087125
        15        14        13        42     9        0.000000       -0.498818         1    ;  uncertainty k = 0.107248
        15        14        13        42     9      180.000000       -0.409705         2    ;  uncertainty k = 0.197166
        15        14        13        42     9        0.000000        0.564544         3    ;  uncertainty k = 0.186998
        15        14        13        42     9      180.000000       -0.072177         4    ;  uncertainty k = 0.062323
        15        14        13        43     9        0.000000       -0.498818         1    ;  uncertainty k = 0.107248
        15        14        13        43     9      180.000000       -0.409705         2    ;  uncertainty k = 0.197166
        15        14        13        43     9        0.000000        0.564544         3    ;  uncertainty k = 0.186998
        15        14        13        43     9      180.000000       -0.072177         4    ;  uncertainty k = 0.062323
        16        12        11        40     9        0.000000        1.416105         1    ;  uncertainty k = 0.719804
        16        12        11        40     9      180.000000        0.065610         2    ;  uncertainty k = 0.093474
        16        12        11        40     9        0.000000        0.002232         3    ;  uncertainty k = 0.089343
        16        12        11        40     9      180.000000        0.277826         4    ;  uncertainty k = 0.071341
        16        12        11        41     9        0.000000        1.416105         1    ;  uncertainty k = 0.719804
        16        12        11        41     9      180.000000        0.065610         2    ;  uncertainty k = 0.093474
        16        12        11        41     9        0.000000        0.002232         3    ;  uncertainty k = 0.089343
        16        12        11        41     9      180.000000        0.277826         4    ;  uncertainty k = 0.071341
        16        12        13        42     9        0.000000        1.416105         1    ;  uncertainty k = 0.719804
        16        12        13        42     9      180.000000        0.065610         2    ;  uncertainty k = 0.093472
        16        12        13        42     9        0.000000        0.002232         3    ;  uncertainty k = 0.089343
        16        12        13        42     9      180.000000        0.277826         4    ;  uncertainty k = 0.071341
        16        12        13        43     9        0.000000        1.416105         1    ;  uncertainty k = 0.719804
        16        12        13        43     9      180.000000        0.065610         2    ;  uncertainty k = 0.093472
        16        12        13        43     9        0.000000        0.002232         3    ;  uncertainty k = 0.089343
        16        12        13        43     9      180.000000        0.277826         4    ;  uncertainty k = 0.071341
        16        18        19        20     9        0.000000        0.086680         1    ;  uncertainty k = 0.322670
        16        18        19        20     9      180.000000       11.407953         2    ;  uncertainty k = 0.599565
        16        18        19        20     9        0.000000        1.385161         3    ;  uncertainty k = 0.187005
        16        18        19        20     9      180.000000        1.483635         4    ;  uncertainty k = 0.318096
        16        18        19        21     9        0.000000        0.114462         1    ;  uncertainty k = 0.659063
        16        18        19        21     9      180.000000        6.312817         2    ;  uncertainty k = 0.577136
        16        18        19        21     9        0.000000        1.356865         3    ;  uncertainty k = 0.282275
        16        18        19        21     9      180.000000        1.940646         4    ;  uncertainty k = 0.196893
        16        18        24        23     9        0.000000        0.266109         1    ;  uncertainty k = 0.262230
        16        18        24        23     9      180.000000        6.791976         2    ;  uncertainty k = 0.556220
        16        18        24        23     9        0.000000        1.305735         3    ;  uncertainty k = 0.332052
        16        18        24        23     9      180.000000        1.750369         4    ;  uncertainty k = 0.249436
        16        18        24        25     9        0.000000       -0.079088         1    ;  uncertainty k = 0.890587
        16        18        24        25     9      180.000000       10.037557         2    ;  uncertainty k = 0.622174
        16        18        24        25     9        0.000000        1.315712         3    ;  uncertainty k = 0.504290
        16        18        24        25     9      180.000000        1.286094         4    ;  uncertainty k = 0.361801
        17        16        18        19     9        0.000000       -1.928785         1    ;  uncertainty k = 0.969843
        17        16        18        19     9      180.000000        5.038791         2    ;  uncertainty k = 0.443316
        17        16        18        19     9        0.000000        0.869540         3    ;  uncertainty k = 0.424298
        17        16        18        19     9      180.000000        0.459984         4    ;  uncertainty k = 0.229979
        17        16        18        24     9        0.000000       -3.997731         1    ;  uncertainty k = 0.906468
        17        16        18        24     9      180.000000        5.945518         2    ;  uncertainty k = 0.542758
        17        16        18        24     9        0.000000        0.551178         3    ;  uncertainty k = 0.549645
        17        16        18        24     9      180.000000        0.513462         4    ;  uncertainty k = 0.329406
        18        19        21        22     9        0.000000        0.011529         1    ;  uncertainty k = 0.194930
        18        19        21        22     9      180.000000        8.787238         2    ;  uncertainty k = 0.361867
        18        19        21        22     9        0.000000        0.106727         3    ;  uncertainty k = 0.344316
        18        19        21        22     9      180.000000        1.205900         4    ;  uncertainty k = 0.276948
        18        19        21        47     9        0.000000       -0.168918         1    ;  uncertainty k = 0.390695
        18        19        21        47     9      180.000000        5.695522         2    ;  uncertainty k = 0.674905
        18        19        21        47     9        0.000000        1.129293         3    ;  uncertainty k = 0.356557
        18        19        21        47     9      180.000000        1.505167         4    ;  uncertainty k = 0.216214
        18        24        23        22     9        0.000000       -0.242508         1    ;  uncertainty k = 0.315737
        18        24        23        22     9      180.000000        9.681246         2    ;  uncertainty k = 0.496020
        18        24        23        22     9        0.000000        0.240132         3    ;  uncertainty k = 0.161668
        18        24        23        22     9      180.000000        1.271249         4    ;  uncertainty k = 0.330409
        18        24        23        49     9        0.000000       -0.007148         1    ;  uncertainty k = 0.345797
        18        24        23        49     9      180.000000        6.393420         2    ;  uncertainty k = 0.363299
        18        24        23        49     9        0.000000        1.235598         3    ;  uncertainty k = 0.195907
        18        24        23        49     9      180.000000        1.608512         4    ;  uncertainty k = 0.191460
        18        24        25        26     9        0.000000       -1.535069         1    ;  uncertainty k = 0.563416
        18        24        25        26     9      180.000000        4.499715         2    ;  uncertainty k = 0.535585
        18        24        25        26     9        0.000000        0.637687         3    ;  uncertainty k = 0.351002
        18        24        25        26     9      180.000000       -0.090463         4    ;  uncertainty k = 0.183190
        18        24        25        29     9        0.000000       -1.535069         1    ;  uncertainty k = 0.563416
        18        24        25        29     9      180.000000        4.499715         2    ;  uncertainty k = 0.535585
        18        24        25        29     9        0.000000        0.637687         3    ;  uncertainty k = 0.351002
        18        24        25        29     9      180.000000       -0.090463         4    ;  uncertainty k = 0.183190
        19        18        24        23     9        0.000000       -0.242351         1    ;  uncertainty k = 0.420152
        19        18        24        23     9      180.000000        6.983637         2    ;  uncertainty k = 0.869640
        19        18        24        23     9        0.000000        0.325219         3    ;  uncertainty k = 0.349953
        19        18        24        23     9      180.000000        1.307286         4    ;  uncertainty k = 0.335099
        19        18        24        25     9        0.000000        0.337460         1    ;  uncertainty k = 0.391009
        19        18        24        25     9      180.000000       10.376661         2    ;  uncertainty k = 0.372710
        19        18        24        25     9        0.000000        1.330823         3    ;  uncertainty k = 0.417773
        19        18        24        25     9      180.000000        1.431413         4    ;  uncertainty k = 0.199546
        19        21        22        23     9        0.000000       -0.033963         1    ;  uncertainty k = 0.110226
        19        21        22        23     9      180.000000       13.984025         2    ;  uncertainty k = 0.340845
        19        21        22        23     9        0.000000       -1.042557         3    ;  uncertainty k = 0.357764
        19        21        22        23     9      180.000000        0.802609         4    ;  uncertainty k = 0.247483
        19        21        22        48     9        0.000000       -0.104379         1    ;  uncertainty k = 0.141872
        19        21        22        48     9      180.000000        7.264410         2    ;  uncertainty k = 0.340044
        19        21        22        48     9        0.000000        1.287730         3    ;  uncertainty k = 0.202339
        19        21        22        48     9      180.000000        1.653500         4    ;  uncertainty k = 0.150967
        20        19        18        24     9        0.000000        0.033254         1    ;  uncertainty k = 0.304862
        20        19        18        24     9      180.000000       11.302610         2    ;  uncertainty k = 0.302059
        20        19        18        24     9        0.000000        1.679241         3    ;  uncertainty k = 0.164696
        20        19        18        24     9      180.000000        1.555515         4    ;  uncertainty k = 0.157671
        20        19        21        22     9        0.000000       -0.080232         1    ;  uncertainty k = 0.461474
        20        19        21        22     9      180.000000       13.203682         2    ;  uncertainty k = 0.340325
        20        19        21        22     9        0.000000        1.295972         3    ;  uncertainty k = 0.165134
        20        19        21        22     9      180.000000        1.523069         4    ;  uncertainty k = 0.233966
        20        19        21        47     9        0.000000       -0.128834         1    ;  uncertainty k = 0.456012
        20        19        21        47     9      180.000000        9.556552         2    ;  uncertainty k = 0.491147
        20        19        21        47     9        0.000000        0.767278         3    ;  uncertainty k = 0.273034
        20        19        21        47     9      180.000000        1.024642         4    ;  uncertainty k = 0.200947
        21        19        18        24     9        0.000000       -0.325541         1    ;  uncertainty k = 0.355388
        21        19        18        24     9      180.000000        6.052960         2    ;  uncertainty k = 0.864094
        21        19        18        24     9        0.000000        0.684668         3    ;  uncertainty k = 0.181781
        21        19        18        24     9      180.000000        1.492448         4    ;  uncertainty k = 0.353261
        21        22        23        24     9        0.000000       -0.096416         1    ;  uncertainty k = 0.180639
        21        22        23        24     9      180.000000       13.532949         2    ;  uncertainty k = 0.268821
        21        22        23        24     9        0.000000       -0.934273         3    ;  uncertainty k = 0.410646
        21        22        23        24     9      180.000000        0.824229         4    ;  uncertainty k = 0.239882
        21        22        23        49     9        0.000000        0.090918         1    ;  uncertainty k = 0.138952
        21        22        23        49     9      180.000000        7.803070         2    ;  uncertainty k = 0.340548
        21        22        23        49     9        0.000000        1.340932         3    ;  uncertainty k = 0.288750
        21        22        23        49     9      180.000000        1.895629         4    ;  uncertainty k = 0.190611
        22        23        24        25     9        0.000000        0.460449         1    ;  uncertainty k = 0.322983
        22        23        24        25     9      180.000000       11.387678         2    ;  uncertainty k = 0.346993
        22        23        24        25     9        0.000000        0.982542         3    ;  uncertainty k = 0.164036
        22        23        24        25     9      180.000000        1.624026         4    ;  uncertainty k = 0.138288
        23        22        21        47     9        0.000000        0.058868         1    ;  uncertainty k = 0.276257
        23        22        21        47     9      180.000000        7.716329         2    ;  uncertainty k = 0.326791
        23        22        21        47     9        0.000000        1.437490         3    ;  uncertainty k = 0.272563
        23        22        21        47     9      180.000000        1.759669         4    ;  uncertainty k = 0.126329
        23        24        25        26     9        0.000000        2.394481         1    ;  uncertainty k = 0.740964
        23        24        25        26     9      180.000000        4.329586         2    ;  uncertainty k = 0.263950
        23        24        25        26     9        0.000000        0.391713         3    ;  uncertainty k = 0.190597
        23        24        25        26     9      180.000000        0.083730         4    ;  uncertainty k = 0.150415
        23        24        25        29     9        0.000000        2.394481         1    ;  uncertainty k = 0.740964
        23        24        25        29     9      180.000000        4.329586         2    ;  uncertainty k = 0.263950
        23        24        25        29     9        0.000000        0.391713         3    ;  uncertainty k = 0.190597
        23        24        25        29     9      180.000000        0.083730         4    ;  uncertainty k = 0.150415
        24        23        22        48     9        0.000000       -0.010723         1    ;  uncertainty k = 0.237400
        24        23        22        48     9      180.000000        7.958978         2    ;  uncertainty k = 0.442749
        24        23        22        48     9        0.000000        1.209101         3    ;  uncertainty k = 0.164443
        24        23        22        48     9      180.000000        1.723739         4    ;  uncertainty k = 0.144208
        24        25        26        27     9        0.000000        0.797559         1    ;  uncertainty k = 2.309877
        24        25        26        27     9      180.000000       14.114446         2    ;  uncertainty k = 0.418682
        24        25        26        27     9        0.000000        1.402880         3    ;  uncertainty k = 0.442527
        24        25        26        27     9      180.000000        0.112613         4    ;  uncertainty k = 0.206946
        24        25        29        28     9        0.000000        0.797559         1    ;  uncertainty k = 2.309877
        24        25        29        28     9      180.000000       14.114446         2    ;  uncertainty k = 0.418682
        24        25        29        28     9        0.000000        1.402880         3    ;  uncertainty k = 0.442527
        24        25        29        28     9      180.000000        0.112613         4    ;  uncertainty k = 0.206946
        25        24        23        49     9        0.000000        0.135211         1    ;  uncertainty k = 0.398577
        25        24        23        49     9      180.000000        8.519176         2    ;  uncertainty k = 0.273746
        25        24        23        49     9        0.000000        0.803950         3    ;  uncertainty k = 0.224881
        25        24        23        49     9      180.000000        1.348903         4    ;  uncertainty k = 0.152778
        25        26        27        28     9        0.000000        0.015899         1    ;  uncertainty k = 0.518603
        25        26        27        28     9      180.000000       24.370143         2    ;  uncertainty k = 0.366584
        25        26        27        28     9        0.000000       -9.715998         3    ;  uncertainty k = 1.915613
        25        26        27        28     9      180.000000        2.426696         4    ;  uncertainty k = 0.655510
        25        26        27        50     9        0.000000        0.232294         1    ;  uncertainty k = 0.741580
        25        26        27        50     9      180.000000       22.028694         2    ;  uncertainty k = 0.487024
        25        26        27        50     9        0.000000        1.455895         3    ;  uncertainty k = 0.397708
        25        26        27        50     9      180.000000        1.220382         4    ;  uncertainty k = 0.604170
        25        29        28        27     9        0.000000        0.015899         1    ;  uncertainty k = 0.518603
        25        29        28        27     9      180.000000       24.370143         2    ;  uncertainty k = 0.366584
        25        29        28        27     9        0.000000       -9.715998         3    ;  uncertainty k = 1.915613
        25        29        28        27     9      180.000000        2.426696         4    ;  uncertainty k = 0.655510
        25        29        28        51     9        0.000000        0.232294         1    ;  uncertainty k = 0.741580
        25        29        28        51     9      180.000000       22.028694         2    ;  uncertainty k = 0.487024
        25        29        28        51     9        0.000000        1.455895         3    ;  uncertainty k = 0.397708
        25        29        28        51     9      180.000000        1.220382         4    ;  uncertainty k = 0.604170
        26        25        29        28     9        0.000000       -0.822391         1    ;  uncertainty k = 0.769863
        26        25        29        28     9      180.000000       22.038729         2    ;  uncertainty k = 0.271382
        26        25        29        28     9        0.000000       -8.305140         3    ;  uncertainty k = 1.269833
        26        25        29        28     9      180.000000        1.298759         4    ;  uncertainty k = 0.596553
        26        27        28        29     9        0.000000       -0.480158         1    ;  uncertainty k = 0.926462
        26        27        28        29     9      180.000000       16.735216         2    ;  uncertainty k = 1.309662
        26        27        28        29     9        0.000000      -12.155219         3    ;  uncertainty k = 1.939945
        26        27        28        29     9      180.000000        1.991293         4    ;  uncertainty k = 0.750423
        26        27        28        51     9        0.000000        0.154897         1    ;  uncertainty k = 0.970262
        26        27        28        51     9      180.000000       11.842300         2    ;  uncertainty k = 0.614370
        26        27        28        51     9        0.000000        0.922189         3    ;  uncertainty k = 0.757887
        26        27        28        51     9      180.000000        0.630945         4    ;  uncertainty k = 0.172002
        27        26        25        29     9        0.000000       -0.822391         1    ;  uncertainty k = 0.769863
        27        26        25        29     9      180.000000       22.038729         2    ;  uncertainty k = 0.271382
        27        26        25        29     9        0.000000       -8.305140         3    ;  uncertainty k = 1.269833
        27        26        25        29     9      180.000000        1.298759         4    ;  uncertainty k = 0.596553
        29        28        27        50     9        0.000000        0.154897         1    ;  uncertainty k = 0.970262
        29        28        27        50     9      180.000000       11.842300         2    ;  uncertainty k = 0.614370
        29        28        27        50     9        0.000000        0.922189         3    ;  uncertainty k = 0.757887
        29        28        27        50     9      180.000000        0.630945         4    ;  uncertainty k = 0.172002
        30         4         3        36     9        0.000000       -0.455991         1    ;  uncertainty k = 0.974949
        30         4         3        36     9      180.000000        6.311777         2    ;  uncertainty k = 0.288318
        30         4         3        36     9        0.000000        0.569973         3    ;  uncertainty k = 0.311099
        30         4         3        36     9      180.000000        0.829181         4    ;  uncertainty k = 0.159800
        30        31        32        55     9        0.000000       41.452283         1    ;  uncertainty k = 0.561748
        30        31        32        55     9      180.000000       -6.171548         2    ;  uncertainty k = 1.544510
        30        31        32        55     9        0.000000       -9.743562         3    ;  uncertainty k = 0.684252
        30        31        32        55     9      180.000000        4.428937         4    ;  uncertainty k = 0.539604
        30        31        32        56     9        0.000000       41.452283         1    ;  uncertainty k = 0.561748
        30        31        32        56     9      180.000000       -6.171548         2    ;  uncertainty k = 1.544510
        30        31        32        56     9        0.000000       -9.743562         3    ;  uncertainty k = 0.684252
        30        31        32        56     9      180.000000        4.428937         4    ;  uncertainty k = 0.539604
        30        32        31        53     9        0.000000       41.452283         1    ;  uncertainty k = 0.561748
        30        32        31        53     9      180.000000       -6.171548         2    ;  uncertainty k = 1.544510
        30        32        31        53     9        0.000000       -9.743562         3    ;  uncertainty k = 0.684252
        30        32        31        53     9      180.000000        4.428937         4    ;  uncertainty k = 0.539604
        30        32        31        54     9        0.000000       41.452283         1    ;  uncertainty k = 0.561748
        30        32        31        54     9      180.000000       -6.171548         2    ;  uncertainty k = 1.544510
        30        32        31        54     9        0.000000       -9.743562         3    ;  uncertainty k = 0.684252
        30        32        31        54     9      180.000000        4.428937         4    ;  uncertainty k = 0.539604
        31        30        32        55     9        0.000000       43.314182         1    ;  uncertainty k = 0.369400
        31        30        32        55     9      180.000000       -4.237476         2    ;  uncertainty k = 1.016813
        31        30        32        55     9        0.000000      -10.403651         3    ;  uncertainty k = 0.704236
        31        30        32        55     9      180.000000        4.848574         4    ;  uncertainty k = 0.253924
        31        30        32        56     9        0.000000       43.314182         1    ;  uncertainty k = 0.369400
        31        30        32        56     9      180.000000       -4.237476         2    ;  uncertainty k = 1.016813
        31        30        32        56     9        0.000000      -10.403651         3    ;  uncertainty k = 0.704236
        31        30        32        56     9      180.000000        4.848574         4    ;  uncertainty k = 0.253924
        31        32        30        52     9        0.000000       47.920019         1    ;  uncertainty k = 0.275595
        31        32        30        52     9      180.000000       -1.536736         2    ;  uncertainty k = 1.765255
        31        32        30        52     9        0.000000      -10.735432         3    ;  uncertainty k = 0.861741
        31        32        30        52     9      180.000000        5.776280         4    ;  uncertainty k = 0.229403
        32        30        31        53     9        0.000000       43.314182         1    ;  uncertainty k = 0.369400
        32        30        31        53     9      180.000000       -4.237476         2    ;  uncertainty k = 1.016813
        32        30        31        53     9        0.000000      -10.403651         3    ;  uncertainty k = 0.704236
        32        30        31        53     9      180.000000        4.848574         4    ;  uncertainty k = 0.253924
        32        30        31        54     9        0.000000       43.314182         1    ;  uncertainty k = 0.369400
        32        30        31        54     9      180.000000       -4.237476         2    ;  uncertainty k = 1.016813
        32        30        31        54     9        0.000000      -10.403651         3    ;  uncertainty k = 0.704236
        32        30        31        54     9      180.000000        4.848574         4    ;  uncertainty k = 0.253924
        32        31        30        52     9        0.000000       47.920019         1    ;  uncertainty k = 0.275595
        32        31        30        52     9      180.000000       -1.536736         2    ;  uncertainty k = 1.765255
        32        31        30        52     9        0.000000      -10.735432         3    ;  uncertainty k = 0.861741
        32        31        30        52     9      180.000000        5.776280         4    ;  uncertainty k = 0.229403
        37         9        10        39     9        0.000000        0.359872         1    ;  uncertainty k = 0.316166
        37         9        10        39     9      180.000000       -0.360044         2    ;  uncertainty k = 0.197279
        37         9        10        39     9        0.000000        0.364903         3    ;  uncertainty k = 0.128583
        37         9        10        39     9      180.000000       -0.036803         4    ;  uncertainty k = 0.081429
        38         9        10        39     9        0.000000        0.359872         1    ;  uncertainty k = 0.316166
        38         9        10        39     9      180.000000       -0.360044         2    ;  uncertainty k = 0.197279
        38         9        10        39     9        0.000000        0.364903         3    ;  uncertainty k = 0.128583
        38         9        10        39     9      180.000000       -0.036803         4    ;  uncertainty k = 0.081429
        39        10        11        40     9        0.000000        0.423998         1    ;  uncertainty k = 0.297943
        39        10        11        40     9      180.000000       -0.322771         2    ;  uncertainty k = 0.253711
        39        10        11        40     9        0.000000        0.343158         3    ;  uncertainty k = 0.128710
        39        10        11        40     9      180.000000       -0.041305         4    ;  uncertainty k = 0.061986
        39        10        11        41     9        0.000000        0.423998         1    ;  uncertainty k = 0.297943
        39        10        11        41     9      180.000000       -0.322771         2    ;  uncertainty k = 0.253711
        39        10        11        41     9        0.000000        0.343158         3    ;  uncertainty k = 0.128710
        39        10        11        41     9      180.000000       -0.041305         4    ;  uncertainty k = 0.061986
        39        10        14        44     9        0.000000        3.534566         1    ;  uncertainty k = 1.183407
        39        10        14        44     9      180.000000       -0.219654         2    ;  uncertainty k = 0.641097
        39        10        14        44     9        0.000000        0.578188         3    ;  uncertainty k = 0.579178
        39        10        14        44     9      180.000000        0.212498         4    ;  uncertainty k = 0.291708
        42        13        14        44     9        0.000000        0.424000         1    ;  uncertainty k = 0.297943
        42        13        14        44     9      180.000000       -0.322771         2    ;  uncertainty k = 0.253710
        42        13        14        44     9        0.000000        0.343158         3    ;  uncertainty k = 0.128710
        42        13        14        44     9      180.000000       -0.041305         4    ;  uncertainty k = 0.061986
        43        13        14        44     9        0.000000        0.424000         1    ;  uncertainty k = 0.297943
        43        13        14        44     9      180.000000       -0.322771         2    ;  uncertainty k = 0.253710
        43        13        14        44     9        0.000000        0.343158         3    ;  uncertainty k = 0.128710
        43        13        14        44     9      180.000000       -0.041305         4    ;  uncertainty k = 0.061986
        44        14        15        45     9        0.000000        0.359873         1    ;  uncertainty k = 0.316165
        44        14        15        45     9      180.000000       -0.360044         2    ;  uncertainty k = 0.197281
        44        14        15        45     9        0.000000        0.364903         3    ;  uncertainty k = 0.128582
        44        14        15        45     9      180.000000       -0.036803         4    ;  uncertainty k = 0.081429
        44        14        15        46     9        0.000000        0.359873         1    ;  uncertainty k = 0.316165
        44        14        15        46     9      180.000000       -0.360044         2    ;  uncertainty k = 0.197281
        44        14        15        46     9        0.000000        0.364903         3    ;  uncertainty k = 0.128582
        44        14        15        46     9      180.000000       -0.036803         4    ;  uncertainty k = 0.081429
        47        21        22        48     9        0.000000       -0.020811         1    ;  uncertainty k = 0.168739
        47        21        22        48     9      180.000000        7.628630         2    ;  uncertainty k = 0.494067
        47        21        22        48     9        0.000000       -0.419007         3    ;  uncertainty k = 0.338955
        47        21        22        48     9      180.000000        0.009969         4    ;  uncertainty k = 0.203192
        48        22        23        49     9        0.000000        0.041837         1    ;  uncertainty k = 0.123335
        48        22        23        49     9      180.000000        7.941959         2    ;  uncertainty k = 0.372063
        48        22        23        49     9        0.000000       -0.460822         3    ;  uncertainty k = 0.327229
        48        22        23        49     9      180.000000        0.152785         4    ;  uncertainty k = 0.182743
        50        27        28        51     9        0.000000       -0.942648         1    ;  uncertainty k = 1.117582
        50        27        28        51     9      180.000000        4.272735         2    ;  uncertainty k = 0.760818
        50        27        28        51     9        0.000000        1.314863         3    ;  uncertainty k = 0.353594
        50        27        28        51     9      180.000000        0.150448         4    ;  uncertainty k = 0.159865
        52        30        31        53     9        0.000000        0.214015         1    ;  uncertainty k = 0.967772
        52        30        31        53     9      180.000000       -1.344565         2    ;  uncertainty k = 0.582489
        52        30        31        53     9        0.000000        0.756567         3    ;  uncertainty k = 0.301649
        52        30        31        53     9      180.000000       -0.849279         4    ;  uncertainty k = 0.127703
        52        30        31        54     9        0.000000        0.214015         1    ;  uncertainty k = 0.967772
        52        30        31        54     9      180.000000       -1.344565         2    ;  uncertainty k = 0.582489
        52        30        31        54     9        0.000000        0.756567         3    ;  uncertainty k = 0.301649
        52        30        31        54     9      180.000000       -0.849279         4    ;  uncertainty k = 0.127703
        52        30        32        55     9        0.000000        0.214015         1    ;  uncertainty k = 0.967772
        52        30        32        55     9      180.000000       -1.344565         2    ;  uncertainty k = 0.582489
        52        30        32        55     9        0.000000        0.756567         3    ;  uncertainty k = 0.301649
        52        30        32        55     9      180.000000       -0.849279         4    ;  uncertainty k = 0.127703
        52        30        32        56     9        0.000000        0.214015         1    ;  uncertainty k = 0.967772
        52        30        32        56     9      180.000000       -1.344565         2    ;  uncertainty k = 0.582489
        52        30        32        56     9        0.000000        0.756567         3    ;  uncertainty k = 0.301649
        52        30        32        56     9      180.000000       -0.849279         4    ;  uncertainty k = 0.127703
        53        31        32        55     9        0.000000        0.102169         1    ;  uncertainty k = 0.569965
        53        31        32        55     9      180.000000       -0.897215         2    ;  uncertainty k = 0.734305
        53        31        32        55     9        0.000000        1.043996         3    ;  uncertainty k = 0.316057
        53        31        32        55     9      180.000000       -0.674501         4    ;  uncertainty k = 0.041088
        53        31        32        56     9        0.000000        0.102169         1    ;  uncertainty k = 0.569965
        53        31        32        56     9      180.000000       -0.897215         2    ;  uncertainty k = 0.734305
        53        31        32        56     9        0.000000        1.043996         3    ;  uncertainty k = 0.316057
        53        31        32        56     9      180.000000       -0.674501         4    ;  uncertainty k = 0.041088
        54        31        32        55     9        0.000000        0.102169         1    ;  uncertainty k = 0.569965
        54        31        32        55     9      180.000000       -0.897215         2    ;  uncertainty k = 0.734305
        54        31        32        55     9        0.000000        1.043996         3    ;  uncertainty k = 0.316057
        54        31        32        55     9      180.000000       -0.674501         4    ;  uncertainty k = 0.041088
        54        31        32        56     9        0.000000        0.102169         1    ;  uncertainty k = 0.569965
        54        31        32        56     9      180.000000       -0.897215         2    ;  uncertainty k = 0.734305
        54        31        32        56     9        0.000000        1.043996         3    ;  uncertainty k = 0.316057
        54        31        32        56     9      180.000000       -0.674501         4    ;  uncertainty k = 0.041088

[ dihedrals ] ; impropers
;       ai        aj        ak        al funct           phase               k        pn
         2         1         3         7     4      180.000000       31.512854         2    ;  uncertainty k = 0.070814
         2         3         7         1     4      180.000000       31.512854         2    ;  uncertainty k = 0.070814
         2         7         1         3     4      180.000000       31.512854         2    ;  uncertainty k = 0.070814
         3         2         4        36     4      180.000000        1.111887         2    ;  uncertainty k = 0.637805
         3         4        36         2     4      180.000000        1.111887         2    ;  uncertainty k = 0.637805
         3        36         2         4     4      180.000000        1.111887         2    ;  uncertainty k = 0.637805
         4         3         5        30     4      180.000000       30.517489         2    ;  uncertainty k = 0.035195
         4         5        30         3     4      180.000000       30.517489         2    ;  uncertainty k = 0.035195
         4        30         3         5     4      180.000000       30.517489         2    ;  uncertainty k = 0.035195
         6         5         7         8     4      180.000000       42.465345         2    ;  uncertainty k = 0.056784
         6         7         8         5     4      180.000000       42.465345         2    ;  uncertainty k = 0.056784
         6         8         5         7     4      180.000000       42.465345         2    ;  uncertainty k = 0.056784
         8         6         9        15     4      180.000000        0.043369         2    ;  uncertainty k = 0.096270
         8         9        15         6     4      180.000000        0.043369         2    ;  uncertainty k = 0.096270
         8        15         6         9     4      180.000000        0.043369         2    ;  uncertainty k = 0.096270
        16        12        17        18     4      180.000000       52.212280         2    ;  uncertainty k = 0.071533
        16        17        18        12     4      180.000000       52.212280         2    ;  uncertainty k = 0.071533
        16        18        12        17     4      180.000000       52.212280         2    ;  uncertainty k = 0.071533
        18        16        19        24     4      180.000000        9.307072         2    ;  uncertainty k = 0.434424
        18        19        24        16     4      180.000000        9.307072         2    ;  uncertainty k = 0.434424
        18        24        16        19     4      180.000000        9.307072         2    ;  uncertainty k = 0.434424
        19        18        20        21     4      180.000000       15.115266         2    ;  uncertainty k = 0.210077
        19        20        21        18     4      180.000000       15.115266         2    ;  uncertainty k = 0.210077
        19        21        18        20     4      180.000000       15.115266         2    ;  uncertainty k = 0.210077
        21        19        22        47     4      180.000000        2.461870         2    ;  uncertainty k = 0.103991
        21        22        47        19     4      180.000000        2.461870         2    ;  uncertainty k = 0.103991
        21        47        19        22     4      180.000000        2.461870         2    ;  uncertainty k = 0.103991
        22        21        23        48     4      180.000000        4.937369         2    ;  uncertainty k = 0.112088
        22        23        48        21     4      180.000000        4.937369         2    ;  uncertainty k = 0.112088
        22        48        21        23     4      180.000000        4.937369         2    ;  uncertainty k = 0.112088
        23        22        24        49     4      180.000000        2.847064         2    ;  uncertainty k = 0.193191
        23        24        49        22     4      180.000000        2.847064         2    ;  uncertainty k = 0.193191
        23        49        22        24     4      180.000000        2.847064         2    ;  uncertainty k = 0.193191
        24        18        23        25     4      180.000000       12.584197         2    ;  uncertainty k = 0.129690
        24        23        25        18     4      180.000000       12.584197         2    ;  uncertainty k = 0.129690
        24        25        18        23     4      180.000000       12.584197         2    ;  uncertainty k = 0.129690
        27        26        28        50     4      180.000000        0.414726         2    ;  uncertainty k = 0.408832
        27        28        50        26     4      180.000000        0.414726         2    ;  uncertainty k = 0.408832
        27        50        26        28     4      180.000000        0.414726         2    ;  uncertainty k = 0.408832
        28        27        29        51     4      180.000000        0.414726         2    ;  uncertainty k = 0.408832
        28        29        51        27     4      180.000000        0.414726         2    ;  uncertainty k = 0.408832
        28        51        27        29     4      180.000000        0.414726         2    ;  uncertainty k = 0.408832

[ pairs ]
;       ai        aj funct
         1         4     1
         1         6     1
         1        36     1
         2         5     1
         2         8     1
         2        30     1
         3         6     1
         3        31     1
         3        32     1
         3        33     1
         3        34     1
         3        35     1
         3        52     1
         4         7     1
         4         8     1
         4        53     1
         4        54     1
         4        55     1
         4        56     1
         5         9     1
         5        15     1
         5        31     1
         5        32     1
         5        36     1
         5        52     1
         6        10     1
         6        14     1
         6        30     1
         6        37     1
         6        38     1
         6        45     1
         6        46     1
         7         9     1
         7        15     1
         7        33     1
         7        34     1
         7        35     1
         7        36     1
         8        11     1
         8        13     1
         8        39     1
         8        44     1
         9        12     1
         9        13     1
         9        40     1
         9        41     1
         9        44     1
         9        45     1
         9        46     1
        10        16     1
        10        42     1
        10        43     1
        10        45     1
        10        46     1
        11        15     1
        11        17     1
        11        18     1
        11        37     1
        11        38     1
        11        42     1
        11        43     1
        11        44     1
        12        15     1
        12        19     1
        12        24     1
        12        39     1
        12        44     1
        13        17     1
        13        18     1
        13        39     1
        13        40     1
        13        41     1
        13        45     1
        13        46     1
        14        16     1
        14        37     1
        14        38     1
        14        40     1
        14        41     1
        15        37     1
        15        38     1
        15        39     1
        15        42     1
        15        43     1
        16        20     1
        16        21     1
        16        23     1
        16        25     1
        16        40     1
        16        41     1
        16        42     1
        16        43     1
        17        19     1
        17        24     1
        18        22     1
        18        26     1
        18        29     1
        18        47     1
        18        49     1
        19        23     1
        19        25     1
        19        48     1
        20        22     1
        20        24     1
        20        47     1
        21        24     1
        21        49     1
        22        25     1
        23        26     1
        23        29     1
        23        47     1
        24        27     1
        24        28     1
        24        48     1
        25        49     1
        25        50     1
        25        51     1
        26        51     1
        29        50     1
        30        36     1
        37        39     1
        38        39     1
        39        40     1
        39        41     1
        39        44     1
        42        44     1
        43        44     1
        44        45     1
        44        46     1
        47        48     1
        48        49     1
        50        51     1
        52        53     1
        52        54     1
        52        55     1
        52        56     1
        53        55     1
        53        56     1
        54        55     1
        54        56     1
