; ITP file created by ByteFF-joint-25, 2025-07-14 11:28:32.183664

[ atomtypes ]
;name           bonded.type        at.num        mass        charge   ptype           sigma         epsilon
 c0bf                                   6      0.0000       0.00000       A     3.39772e-01     4.50928e-01    ;  uncertainty sigma = 0.000004, epsilon = 0.000488
 c1bf                                   6      0.0000       0.00000       A     3.31514e-01     4.13202e-01    ;  uncertainty sigma = 0.000008, epsilon = 0.000764
 c2bf                                   6      0.0000       0.00000       A     3.31514e-01     4.13200e-01    ;  uncertainty sigma = 0.000006, epsilon = 0.000650
 c3bf                                   6      0.0000       0.00000       A     3.31549e-01     4.13562e-01    ;  uncertainty sigma = 0.000013, epsilon = 0.001030
 c4bf                                   6      0.0000       0.00000       A     3.31578e-01     4.12778e-01    ;  uncertainty sigma = 0.000019, epsilon = 0.002196
 c5bf                                   6      0.0000       0.00000       A     3.31585e-01     4.13735e-01    ;  uncertainty sigma = 0.000040, epsilon = 0.000889
 n6bf                                   7      0.0000       0.00000       A     3.38387e-01     3.92903e-01    ;  uncertainty sigma = 0.000019, epsilon = 0.001262
 c7bf                                   6      0.0000       0.00000       A     3.31471e-01     4.13272e-01    ;  uncertainty sigma = 0.000007, epsilon = 0.001563
 o8bf                                   8      0.0000       0.00000       A     3.04816e-01     6.12455e-01    ;  uncertainty sigma = 0.000014, epsilon = 0.001156
 n9bf                                   7      0.0000       0.00000       A     3.18089e-01     6.83457e-01    ;  uncertainty sigma = 0.000019, epsilon = 0.001415
 c10bf                                  6      0.0000       0.00000       A     3.39785e-01     4.51242e-01    ;  uncertainty sigma = 0.000005, epsilon = 0.000650
 c11bf                                  6      0.0000       0.00000       A     3.39776e-01     4.51373e-01    ;  uncertainty sigma = 0.000009, epsilon = 0.000969
 c12bf                                  6      0.0000       0.00000       A     3.39774e-01     4.50953e-01    ;  uncertainty sigma = 0.000012, epsilon = 0.001229
 n13bf                                  7      0.0000       0.00000       A     3.18950e-01     8.99076e-01    ;  uncertainty sigma = 0.000052, epsilon = 0.003577
 c14bf                                  6      0.0000       0.00000       A     3.39774e-01     4.50953e-01    ;  uncertainty sigma = 0.000012, epsilon = 0.001229
 c15bf                                  6      0.0000       0.00000       A     3.39776e-01     4.51373e-01    ;  uncertainty sigma = 0.000009, epsilon = 0.000969
 c16bf                                  6      0.0000       0.00000       A     3.39785e-01     4.51242e-01    ;  uncertainty sigma = 0.000005, epsilon = 0.000650
 c17bf                                  6      0.0000       0.00000       A     3.31545e-01     4.13196e-01    ;  uncertainty sigma = 0.000018, epsilon = 0.000667
 n18bf                                  7      0.0000       0.00000       A     3.38407e-01     3.93685e-01    ;  uncertainty sigma = 0.000013, epsilon = 0.000791
 c19bf                                  6      0.0000       0.00000       A     3.31511e-01     4.13145e-01    ;  uncertainty sigma = 0.000011, epsilon = 0.000579
 c20bf                                  6      0.0000       0.00000       A     3.39773e-01     4.50930e-01    ;  uncertainty sigma = 0.000007, epsilon = 0.000592
 c21bf                                  6      0.0000       0.00000       A     3.31523e-01     4.13243e-01    ;  uncertainty sigma = 0.000013, epsilon = 0.000737
 c22bf                                  6      0.0000       0.00000       A     3.31511e-01     4.13145e-01    ;  uncertainty sigma = 0.000011, epsilon = 0.000579
 c23bf                                  6      0.0000       0.00000       A     3.39773e-01     4.50930e-01    ;  uncertainty sigma = 0.000007, epsilon = 0.000592
 n24bf                                  7      0.0000       0.00000       A     3.38407e-01     3.93685e-01    ;  uncertainty sigma = 0.000013, epsilon = 0.000791
 n25bf                                  7      0.0000       0.00000       A     3.20627e-01     8.54160e-01    ;  uncertainty sigma = 0.000047, epsilon = 0.004543
 n26bf                                  7      0.0000       0.00000       A     3.38413e-01     3.93618e-01    ;  uncertainty sigma = 0.000008, epsilon = 0.000654
 c27bf                                  6      0.0000       0.00000       A     3.31537e-01     4.13587e-01    ;  uncertainty sigma = 0.000007, epsilon = 0.000835
 c28bf                                  6      0.0000       0.00000       A     3.31537e-01     4.13587e-01    ;  uncertainty sigma = 0.000007, epsilon = 0.000835
 n29bf                                  7      0.0000       0.00000       A     3.38413e-01     3.93618e-01    ;  uncertainty sigma = 0.000008, epsilon = 0.000654
 h30bf                                  1      0.0000       0.00000       A     2.60034e-01     8.66332e-02    ;  uncertainty sigma = 0.000007, epsilon = 0.000537
 h31bf                                  1      0.0000       0.00000       A     2.60034e-01     8.66332e-02    ;  uncertainty sigma = 0.000007, epsilon = 0.000537
 h32bf                                  1      0.0000       0.00000       A     2.60034e-01     8.66332e-02    ;  uncertainty sigma = 0.000007, epsilon = 0.000537
 h33bf                                  1      0.0000       0.00000       A     2.62568e-01     6.70868e-02    ;  uncertainty sigma = 0.000014, epsilon = 0.000514
 h34bf                                  1      0.0000       0.00000       A     2.62562e-01     6.72502e-02    ;  uncertainty sigma = 0.000007, epsilon = 0.000655
 h35bf                                  1      0.0000       0.00000       A     2.42194e-01     8.66543e-02    ;  uncertainty sigma = 0.000021, epsilon = 0.000863
 h36bf                                  1      0.0000       0.00000       A     2.42194e-01     8.66543e-02    ;  uncertainty sigma = 0.000021, epsilon = 0.000863
 h37bf                                  1      0.0000       0.00000       A     2.59994e-01     8.68892e-02    ;  uncertainty sigma = 0.000026, epsilon = 0.000553
 h38bf                                  1      0.0000       0.00000       A     2.42199e-01     8.66323e-02    ;  uncertainty sigma = 0.000024, epsilon = 0.001250
 h39bf                                  1      0.0000       0.00000       A     2.42199e-01     8.66323e-02    ;  uncertainty sigma = 0.000024, epsilon = 0.001250
 h40bf                                  1      0.0000       0.00000       A     2.42199e-01     8.66324e-02    ;  uncertainty sigma = 0.000024, epsilon = 0.001250
 h41bf                                  1      0.0000       0.00000       A     2.42199e-01     8.66324e-02    ;  uncertainty sigma = 0.000024, epsilon = 0.001250
 h42bf                                  1      0.0000       0.00000       A     2.59994e-01     8.68893e-02    ;  uncertainty sigma = 0.000026, epsilon = 0.000553
 h43bf                                  1      0.0000       0.00000       A     2.42194e-01     8.66544e-02    ;  uncertainty sigma = 0.000021, epsilon = 0.000864
 h44bf                                  1      0.0000       0.00000       A     2.42194e-01     8.66544e-02    ;  uncertainty sigma = 0.000021, epsilon = 0.000864
 h45bf                                  1      0.0000       0.00000       A     2.60034e-01     8.66333e-02    ;  uncertainty sigma = 0.000007, epsilon = 0.000537
 h46bf                                  1      0.0000       0.00000       A     2.60034e-01     8.66333e-02    ;  uncertainty sigma = 0.000007, epsilon = 0.000537
 h47bf                                  1      0.0000       0.00000       A     2.60034e-01     8.66333e-02    ;  uncertainty sigma = 0.000007, epsilon = 0.000537
 h48bf                                  1      0.0000       0.00000       A     2.62580e-01     6.71311e-02    ;  uncertainty sigma = 0.000016, epsilon = 0.000304
 h49bf                                  1      0.0000       0.00000       A     2.60034e-01     8.66332e-02    ;  uncertainty sigma = 0.000007, epsilon = 0.000537
 h50bf                                  1      0.0000       0.00000       A     2.60034e-01     8.66332e-02    ;  uncertainty sigma = 0.000007, epsilon = 0.000537
 h51bf                                  1      0.0000       0.00000       A     2.60034e-01     8.66332e-02    ;  uncertainty sigma = 0.000007, epsilon = 0.000537
 h52bf                                  1      0.0000       0.00000       A     2.53604e-01     6.70806e-02    ;  uncertainty sigma = 0.000028, epsilon = 0.000600
 h53bf                                  1      0.0000       0.00000       A     2.53604e-01     6.70807e-02    ;  uncertainty sigma = 0.000028, epsilon = 0.000600

[ moleculetype ]
;name             nrexcl
 MOL                   3

[ atoms ]
;       nr            type      resi   res      atom      cgnr      charge          mass ; qtot
         1            c0bf         1   UNL        c0         1    -0.14045       12.0110 ; qtot   -0.140
         2            c1bf         1   UNL        c1         2     0.42442       12.0110 ; qtot    0.284
         3            c2bf         1   UNL        c2         3    -0.22187       12.0110 ; qtot    0.062
         4            c3bf         1   UNL        c3         4    -0.07727       12.0110 ; qtot   -0.015
         5            c4bf         1   UNL        c4         5    -0.06426       12.0110 ; qtot   -0.079
         6            c5bf         1   UNL        c5         6     0.39790       12.0110 ; qtot    0.318
         7            n6bf         1   UNL        n6         7    -0.66523       14.0070 ; qtot   -0.347
         8            c7bf         1   UNL        c7         8     0.59624       12.0110 ; qtot    0.249
         9            o8bf         1   UNL        o8         9    -0.58980       15.9990 ; qtot   -0.340
        10            n9bf         1   UNL        n9        10    -0.46829       14.0070 ; qtot   -0.809
        11           c10bf         1   UNL       c10        11     0.11360       12.0110 ; qtot   -0.695
        12           c11bf         1   UNL       c11        12    -0.09725       12.0110 ; qtot   -0.792
        13           c12bf         1   UNL       c12        13     0.23390       12.0110 ; qtot   -0.558
        14           n13bf         1   UNL       n13        14    -0.79085       14.0070 ; qtot   -1.349
        15           c14bf         1   UNL       c14        15     0.23390       12.0110 ; qtot   -1.115
        16           c15bf         1   UNL       c15        16    -0.09725       12.0110 ; qtot   -1.213
        17           c16bf         1   UNL       c16        17     0.11360       12.0110 ; qtot   -1.099
        18           c17bf         1   UNL       c17        18     0.90706       12.0110 ; qtot   -0.192
        19           n18bf         1   UNL       n18        19    -0.77862       14.0070 ; qtot   -0.971
        20           c19bf         1   UNL       c19        20     0.48649       12.0110 ; qtot   -0.484
        21           c20bf         1   UNL       c20        21    -0.15162       12.0110 ; qtot   -0.636
        22           c21bf         1   UNL       c21        22    -0.41183       12.0110 ; qtot   -1.047
        23           c22bf         1   UNL       c22        23     0.48649       12.0110 ; qtot   -0.561
        24           c23bf         1   UNL       c23        24    -0.15162       12.0110 ; qtot   -0.713
        25           n24bf         1   UNL       n24        25    -0.77862       14.0070 ; qtot   -1.491
        26           n25bf         1   UNL       n25        26     0.30995       14.0070 ; qtot   -1.181
        27           n26bf         1   UNL       n26        27    -0.47115       14.0070 ; qtot   -1.652
        28           c27bf         1   UNL       c27        28     0.20564       12.0110 ; qtot   -1.447
        29           c28bf         1   UNL       c28        29     0.20564       12.0110 ; qtot   -1.241
        30           n29bf         1   UNL       n29        30    -0.47115       14.0070 ; qtot   -1.712
        31           h30bf         1   UNL       h30        31     0.05232        1.0080 ; qtot   -1.660
        32           h31bf         1   UNL       h31        32     0.05232        1.0080 ; qtot   -1.608
        33           h32bf         1   UNL       h32        33     0.05232        1.0080 ; qtot   -1.555
        34           h33bf         1   UNL       h33        34     0.14767        1.0080 ; qtot   -1.408
        35           h34bf         1   UNL       h34        35     0.16768        1.0080 ; qtot   -1.240
        36           h35bf         1   UNL       h35        36     0.06162        1.0080 ; qtot   -1.178
        37           h36bf         1   UNL       h36        37     0.06162        1.0080 ; qtot   -1.117
        38           h37bf         1   UNL       h37        38     0.07237        1.0080 ; qtot   -1.044
        39           h38bf         1   UNL       h38        39     0.05891        1.0080 ; qtot   -0.985
        40           h39bf         1   UNL       h39        40     0.05891        1.0080 ; qtot   -0.927
        41           h40bf         1   UNL       h40        41     0.05891        1.0080 ; qtot   -0.868
        42           h41bf         1   UNL       h41        42     0.05891        1.0080 ; qtot   -0.809
        43           h42bf         1   UNL       h42        43     0.07237        1.0080 ; qtot   -0.736
        44           h43bf         1   UNL       h43        44     0.06162        1.0080 ; qtot   -0.675
        45           h44bf         1   UNL       h44        45     0.06162        1.0080 ; qtot   -0.613
        46           h45bf         1   UNL       h45        46     0.05868        1.0080 ; qtot   -0.554
        47           h46bf         1   UNL       h46        47     0.05868        1.0080 ; qtot   -0.496
        48           h47bf         1   UNL       h47        48     0.05868        1.0080 ; qtot   -0.437
        49           h48bf         1   UNL       h48        49     0.15114        1.0080 ; qtot   -0.286
        50           h49bf         1   UNL       h49        50     0.05868        1.0080 ; qtot   -0.227
        51           h50bf         1   UNL       h50        51     0.05868        1.0080 ; qtot   -0.169
        52           h51bf         1   UNL       h51        52     0.05868        1.0080 ; qtot   -0.110
        53           h52bf         1   UNL       h52        53     0.05496        1.0080 ; qtot   -0.055
        54           h53bf         1   UNL       h53        54     0.05495        1.0080 ; qtot   -0.000

[ bonds ]
;       ai        aj funct               r               k
         1         2     1        0.150806   261884.537793    ;  uncertainty r = 0.000048, k = 5.806359
         1        31     1        0.109476   310432.727832    ;  uncertainty r = 0.000013, k = 1.536430
         1        32     1        0.109476   310432.727832    ;  uncertainty r = 0.000013, k = 1.536430
         1        33     1        0.109476   310432.727832    ;  uncertainty r = 0.000013, k = 1.536430
         2         3     1        0.140167   354666.729687    ;  uncertainty r = 0.000055, k = 10.162632
         2         7     1        0.134265   372815.493652    ;  uncertainty r = 0.000088, k = 15.207889
         3         4     1        0.138578   384053.685986    ;  uncertainty r = 0.000097, k = 2.581636
         3        34     1        0.108804   338411.287012    ;  uncertainty r = 0.000013, k = 1.360046
         4         5     1        0.139139   348599.878613    ;  uncertainty r = 0.000138, k = 8.872535
         4        35     1        0.108534   331294.043555    ;  uncertainty r = 0.000008, k = 1.196187
         5         6     1        0.139886   312554.759473    ;  uncertainty r = 0.000105, k = 12.309121
         5        26     1        0.140333   319946.756689    ;  uncertainty r = 0.000256, k = 8.903020
         6         7     1        0.133412   432109.290723    ;  uncertainty r = 0.000123, k = 22.038148
         6         8     1        0.151016   235537.672217    ;  uncertainty r = 0.000167, k = 18.143292
         8         9     1        0.123391   668789.314453    ;  uncertainty r = 0.000070, k = 10.591036
         8        10     1        0.135109   325677.003125    ;  uncertainty r = 0.000069, k = 13.471681
        10        11     1        0.147055   239228.525098    ;  uncertainty r = 0.000049, k = 14.387597
        10        17     1        0.147055   239228.525098    ;  uncertainty r = 0.000049, k = 14.387608
        11        12     1        0.153483   216575.449170    ;  uncertainty r = 0.000027, k = 7.578009
        11        36     1        0.109407   307491.823242    ;  uncertainty r = 0.000028, k = 1.193805
        11        37     1        0.109407   307491.823242    ;  uncertainty r = 0.000028, k = 1.193805
        12        13     1        0.153378   218045.467334    ;  uncertainty r = 0.000067, k = 7.088229
        12        16     1        0.154451   200722.535181    ;  uncertainty r = 0.000080, k = 20.796812
        12        38     1        0.109350   305021.261133    ;  uncertainty r = 0.000029, k = 3.829687
        13        14     1        0.146381   223708.423486    ;  uncertainty r = 0.000058, k = 14.342784
        13        39     1        0.109551   306518.450781    ;  uncertainty r = 0.000069, k = 2.534279
        13        40     1        0.109551   306518.450781    ;  uncertainty r = 0.000069, k = 2.534279
        14        15     1        0.146381   223708.397949    ;  uncertainty r = 0.000058, k = 14.342739
        14        18     1        0.136652   318374.998682    ;  uncertainty r = 0.000092, k = 21.200731
        15        16     1        0.153378   218045.441797    ;  uncertainty r = 0.000067, k = 7.088210
        15        41     1        0.109551   306518.450781    ;  uncertainty r = 0.000069, k = 2.534269
        15        42     1        0.109551   306518.450781    ;  uncertainty r = 0.000069, k = 2.534269
        16        17     1        0.153483   216575.474707    ;  uncertainty r = 0.000027, k = 7.577996
        16        43     1        0.109350   305021.261133    ;  uncertainty r = 0.000029, k = 3.829675
        17        44     1        0.109407   307491.823242    ;  uncertainty r = 0.000028, k = 1.193792
        17        45     1        0.109407   307491.823242    ;  uncertainty r = 0.000028, k = 1.193792
        18        19     1        0.135351   495763.395996    ;  uncertainty r = 0.000102, k = 13.751660
        18        25     1        0.135351   495763.395996    ;  uncertainty r = 0.000102, k = 13.751690
        19        20     1        0.134238   464612.668164    ;  uncertainty r = 0.000041, k = 6.904050
        20        21     1        0.150631   258312.687842    ;  uncertainty r = 0.000036, k = 5.578428
        20        22     1        0.140287   430446.058789    ;  uncertainty r = 0.000066, k = 4.969267
        21        46     1        0.109444   310537.583203    ;  uncertainty r = 0.000015, k = 1.598101
        21        47     1        0.109444   310537.583203    ;  uncertainty r = 0.000015, k = 1.598101
        21        48     1        0.109444   310537.583203    ;  uncertainty r = 0.000015, k = 1.598101
        22        23     1        0.140287   430446.058789    ;  uncertainty r = 0.000066, k = 4.969234
        22        49     1        0.108737   344393.201660    ;  uncertainty r = 0.000026, k = 3.476266
        23        24     1        0.150631   258312.662305    ;  uncertainty r = 0.000036, k = 5.578455
        23        25     1        0.134238   464612.770313    ;  uncertainty r = 0.000041, k = 6.904054
        24        50     1        0.109444   310537.608740    ;  uncertainty r = 0.000015, k = 1.598090
        24        51     1        0.109444   310537.608740    ;  uncertainty r = 0.000015, k = 1.598090
        24        52     1        0.109444   310537.608740    ;  uncertainty r = 0.000015, k = 1.598090
        26        27     1        0.134451   228578.426855    ;  uncertainty r = 0.000085, k = 14.588809
        26        30     1        0.134451   228578.426855    ;  uncertainty r = 0.000085, k = 14.588809
        27        28     1        0.132944   463455.122070    ;  uncertainty r = 0.000063, k = 7.681530
        28        29     1        0.141781   249584.001709    ;  uncertainty r = 0.000103, k = 15.332670
        28        53     1        0.108418   339910.136572    ;  uncertainty r = 0.000037, k = 1.124302
        29        30     1        0.132944   463455.122070    ;  uncertainty r = 0.000063, k = 7.681530
        29        54     1        0.108418   339910.136572    ;  uncertainty r = 0.000037, k = 1.124299

[ angles ]
;       ai        aj        ak funct           theta             cth
         1         2         3     1      121.673523      412.518644    ;  uncertainty theta = 0.002726, k = 0.269693
         1         2         7     1      118.280846      504.010190    ;  uncertainty theta = 0.003395, k = 0.155329
         2         1        31     1      109.132286      388.800735    ;  uncertainty theta = 0.001636, k = 0.055026
         2         1        32     1      109.132286      388.800735    ;  uncertainty theta = 0.001636, k = 0.055026
         2         1        33     1      109.132286      388.800735    ;  uncertainty theta = 0.001636, k = 0.055026
         2         3         4     1      117.540184      483.519054    ;  uncertainty theta = 0.002338, k = 0.148299
         2         3        34     1      120.929276      274.430205    ;  uncertainty theta = 0.001563, k = 0.054223
         2         7         6     1      119.762863      418.677078    ;  uncertainty theta = 0.003745, k = 0.254855
         3         2         7     1      121.288696      601.536188    ;  uncertainty theta = 0.003392, k = 0.108380
         3         4         5     1      118.808701      528.294864    ;  uncertainty theta = 0.001948, k = 0.157311
         3         4        35     1      121.889587      286.650573    ;  uncertainty theta = 0.002454, k = 0.106321
         4         3        34     1      120.906387      280.179055    ;  uncertainty theta = 0.002523, k = 0.040862
         4         5         6     1      123.501709      355.235843    ;  uncertainty theta = 0.007726, k = 0.343885
         4         5        26     1      119.017433      459.681695    ;  uncertainty theta = 0.003464, k = 0.150486
         5         4        35     1      118.217911      263.475072    ;  uncertainty theta = 0.007174, k = 0.161951
         5         6         7     1      125.303566      617.626673    ;  uncertainty theta = 0.006241, k = 0.192688
         5         6         8     1      120.904480      371.247515    ;  uncertainty theta = 0.006775, k = 0.307930
         5        26        27     1      116.003906      433.480589    ;  uncertainty theta = 0.008223, k = 0.085190
         5        26        30     1      116.003906      433.480589    ;  uncertainty theta = 0.008223, k = 0.085190
         6         5        26     1      118.084610      415.794257    ;  uncertainty theta = 0.005073, k = 0.389448
         6         8         9     1      121.662735      444.164549    ;  uncertainty theta = 0.005596, k = 0.097660
         6         8        10     1      111.263306      385.807307    ;  uncertainty theta = 0.006323, k = 0.152689
         7         6         8     1      117.139877      436.206835    ;  uncertainty theta = 0.004180, k = 0.224505
         8        10        11     1      117.697937      361.910350    ;  uncertainty theta = 0.003953, k = 0.131176
         8        10        17     1      117.697937      361.910318    ;  uncertainty theta = 0.003953, k = 0.131176
         9         8        10     1      125.134445      740.816093    ;  uncertainty theta = 0.003003, k = 0.150117
        10        11        12     1      106.058067      795.674528    ;  uncertainty theta = 0.003237, k = 0.196804
        10        11        36     1      109.185745      457.390378    ;  uncertainty theta = 0.001621, k = 0.091421
        10        11        37     1      109.185745      457.390378    ;  uncertainty theta = 0.001621, k = 0.091421
        10        17        16     1      106.058067      795.674592    ;  uncertainty theta = 0.003237, k = 0.196804
        10        17        44     1      109.185745      457.390410    ;  uncertainty theta = 0.001621, k = 0.091421
        10        17        45     1      109.185745      457.390410    ;  uncertainty theta = 0.001621, k = 0.091421
        11        10        17     1      114.538513      531.637576    ;  uncertainty theta = 0.002583, k = 0.157166
        11        12        13     1      112.949661      497.404730    ;  uncertainty theta = 0.002421, k = 0.264888
        11        12        16     1      106.556229      683.335380    ;  uncertainty theta = 0.002369, k = 0.112699
        11        12        38     1      108.932266      380.845829    ;  uncertainty theta = 0.002642, k = 0.151569
        12        11        36     1      109.865158      397.575509    ;  uncertainty theta = 0.001989, k = 0.094014
        12        11        37     1      109.865158      397.575509    ;  uncertainty theta = 0.001989, k = 0.094014
        12        13        14     1      105.543358      834.662608    ;  uncertainty theta = 0.001817, k = 0.093259
        12        13        39     1      109.942749      401.681014    ;  uncertainty theta = 0.001744, k = 0.042629
        12        13        40     1      109.942749      401.681014    ;  uncertainty theta = 0.001744, k = 0.042629
        12        16        15     1      106.407143      696.228428    ;  uncertainty theta = 0.000820, k = 0.121960
        12        16        17     1      106.556229      683.335380    ;  uncertainty theta = 0.002370, k = 0.112699
        12        16        43     1      109.787766      408.249893    ;  uncertainty theta = 0.001833, k = 0.098421
        13        12        16     1      106.407143      696.228364    ;  uncertainty theta = 0.000820, k = 0.121960
        13        12        38     1      108.909218      387.529561    ;  uncertainty theta = 0.002428, k = 0.196424
        13        14        15     1      112.639450      489.228386    ;  uncertainty theta = 0.009972, k = 0.334405
        13        14        18     1      113.699562      433.285645    ;  uncertainty theta = 0.003934, k = 0.215172
        14        13        39     1      108.562340      456.415882    ;  uncertainty theta = 0.001202, k = 0.062362
        14        13        40     1      108.562340      456.415882    ;  uncertainty theta = 0.001202, k = 0.062362
        14        15        16     1      105.543358      834.662672    ;  uncertainty theta = 0.001817, k = 0.093259
        14        15        41     1      108.562340      456.415882    ;  uncertainty theta = 0.001202, k = 0.062362
        14        15        42     1      108.562340      456.415882    ;  uncertainty theta = 0.001202, k = 0.062362
        14        18        19     1      119.537033      549.082071    ;  uncertainty theta = 0.007399, k = 0.202208
        14        18        25     1      119.537033      549.082007    ;  uncertainty theta = 0.007399, k = 0.202208
        15        14        18     1      113.699562      433.285645    ;  uncertainty theta = 0.003934, k = 0.215172
        15        16        17     1      112.949661      497.404762    ;  uncertainty theta = 0.002421, k = 0.264887
        15        16        43     1      108.909218      387.529561    ;  uncertainty theta = 0.002428, k = 0.196423
        16        12        38     1      109.787766      408.249925    ;  uncertainty theta = 0.001833, k = 0.098421
        16        15        41     1      109.942749      401.681014    ;  uncertainty theta = 0.001744, k = 0.042629
        16        15        42     1      109.942749      401.681014    ;  uncertainty theta = 0.001744, k = 0.042629
        16        17        44     1      109.865158      397.575509    ;  uncertainty theta = 0.001989, k = 0.094014
        16        17        45     1      109.865158      397.575509    ;  uncertainty theta = 0.001989, k = 0.094014
        17        16        43     1      108.932266      380.845829    ;  uncertainty theta = 0.002642, k = 0.151569
        18        19        20     1      115.347641      408.898855    ;  uncertainty theta = 0.006383, k = 0.283100
        18        25        23     1      115.347641      408.898887    ;  uncertainty theta = 0.006383, k = 0.283100
        19        18        25     1      129.113480      717.709733    ;  uncertainty theta = 0.004729, k = 0.118642
        19        20        21     1      118.694351      504.935496    ;  uncertainty theta = 0.002079, k = 0.183388
        19        20        22     1      120.465759      656.141040    ;  uncertainty theta = 0.004510, k = 0.102828
        20        21        46     1      108.943436      385.594391    ;  uncertainty theta = 0.001293, k = 0.046207
        20        21        47     1      108.943436      385.594391    ;  uncertainty theta = 0.001293, k = 0.046207
        20        21        48     1      108.943436      385.594391    ;  uncertainty theta = 0.001293, k = 0.046207
        20        22        23     1      116.498535      460.598349    ;  uncertainty theta = 0.005053, k = 0.122034
        20        22        49     1      121.718430      273.369457    ;  uncertainty theta = 0.001159, k = 0.085455
        21        20        22     1      122.372597      418.636154    ;  uncertainty theta = 0.002202, k = 0.178974
        22        23        24     1      122.372597      418.636154    ;  uncertainty theta = 0.002202, k = 0.178974
        22        23        25     1      120.465759      656.141103    ;  uncertainty theta = 0.004510, k = 0.102828
        23        22        49     1      121.718430      273.369457    ;  uncertainty theta = 0.001159, k = 0.085456
        23        24        50     1      108.943436      385.594391    ;  uncertainty theta = 0.001293, k = 0.046207
        23        24        51     1      108.943436      385.594391    ;  uncertainty theta = 0.001293, k = 0.046207
        23        24        52     1      108.943436      385.594391    ;  uncertainty theta = 0.001293, k = 0.046207
        24        23        25     1      118.694351      504.935560    ;  uncertainty theta = 0.002079, k = 0.183389
        26        27        28     1      105.286926      919.025725    ;  uncertainty theta = 0.004317, k = 0.158405
        26        30        29     1      105.286926      919.025725    ;  uncertainty theta = 0.004317, k = 0.158405
        27        26        30     1      113.981934     1155.532237    ;  uncertainty theta = 0.003970, k = 0.220442
        27        28        29     1      108.888634      887.374074    ;  uncertainty theta = 0.003901, k = 0.098446
        27        28        53     1      119.788475      274.010949    ;  uncertainty theta = 0.003762, k = 0.111795
        28        29        30     1      108.888634      887.374074    ;  uncertainty theta = 0.003901, k = 0.098446
        28        29        54     1      127.065453      242.460680    ;  uncertainty theta = 0.004115, k = 0.077998
        29        28        53     1      127.065453      242.460680    ;  uncertainty theta = 0.004115, k = 0.077998
        30        29        54     1      119.788475      274.010949    ;  uncertainty theta = 0.003762, k = 0.111795
        31         1        32     1      107.063156      313.344290    ;  uncertainty theta = 0.001370, k = 0.026510
        31         1        33     1      107.063156      313.344290    ;  uncertainty theta = 0.001370, k = 0.026510
        32         1        33     1      107.063156      313.344290    ;  uncertainty theta = 0.001370, k = 0.026510
        36        11        37     1      105.398071      309.077582    ;  uncertainty theta = 0.003779, k = 0.079218
        39        13        40     1      105.122986      312.324913    ;  uncertainty theta = 0.002382, k = 0.114503
        41        15        42     1      105.123001      312.324913    ;  uncertainty theta = 0.002382, k = 0.114503
        44        17        45     1      105.398071      309.077614    ;  uncertainty theta = 0.003779, k = 0.079218
        46        21        47     1      107.153793      312.530199    ;  uncertainty theta = 0.001242, k = 0.032267
        46        21        48     1      107.153793      312.530199    ;  uncertainty theta = 0.001242, k = 0.032267
        47        21        48     1      107.153793      312.530199    ;  uncertainty theta = 0.001242, k = 0.032267
        50        24        51     1      107.153793      312.530167    ;  uncertainty theta = 0.001242, k = 0.032267
        50        24        52     1      107.153793      312.530167    ;  uncertainty theta = 0.001242, k = 0.032267
        51        24        52     1      107.153793      312.530167    ;  uncertainty theta = 0.001242, k = 0.032267

[ dihedrals ] ; propers for gromacs 4.5 or higher, use funct 9
;       ai        aj        ak        al funct           phase               k        pn
         1         2         3         4     9        0.000000        0.232936         1    ;  uncertainty k = 0.425039
         1         2         3         4     9      180.000000        6.977525         2    ;  uncertainty k = 0.415482
         1         2         3         4     9        0.000000        1.129367         3    ;  uncertainty k = 0.237512
         1         2         3         4     9      180.000000        1.649918         4    ;  uncertainty k = 0.187011
         1         2         3        34     9        0.000000       -0.311654         1    ;  uncertainty k = 0.427808
         1         2         3        34     9      180.000000        6.943335         2    ;  uncertainty k = 0.334684
         1         2         3        34     9        0.000000        0.540415         3    ;  uncertainty k = 0.164896
         1         2         3        34     9      180.000000        0.743596         4    ;  uncertainty k = 0.226248
         1         2         7         6     9        0.000000        0.401762         1    ;  uncertainty k = 0.661299
         1         2         7         6     9      180.000000       13.397898         2    ;  uncertainty k = 0.256837
         1         2         7         6     9        0.000000        2.282788         3    ;  uncertainty k = 0.698509
         1         2         7         6     9      180.000000        1.598516         4    ;  uncertainty k = 0.460762
         2         3         4         5     9        0.000000       -0.071486         1    ;  uncertainty k = 0.150543
         2         3         4         5     9      180.000000       13.237007         2    ;  uncertainty k = 0.296536
         2         3         4         5     9        0.000000       -0.889383         3    ;  uncertainty k = 0.446792
         2         3         4         5     9      180.000000        0.921528         4    ;  uncertainty k = 0.167644
         2         3         4        35     9        0.000000       -0.047214         1    ;  uncertainty k = 0.238952
         2         3         4        35     9      180.000000        7.611237         2    ;  uncertainty k = 0.518155
         2         3         4        35     9        0.000000        1.217991         3    ;  uncertainty k = 0.230441
         2         3         4        35     9      180.000000        1.676541         4    ;  uncertainty k = 0.131558
         2         7         6         5     9        0.000000       -0.367517         1    ;  uncertainty k = 0.893790
         2         7         6         5     9      180.000000       11.741019         2    ;  uncertainty k = 0.660531
         2         7         6         5     9        0.000000        1.321569         3    ;  uncertainty k = 0.537613
         2         7         6         5     9      180.000000        1.536309         4    ;  uncertainty k = 0.379348
         2         7         6         8     9        0.000000       -0.112711         1    ;  uncertainty k = 1.833357
         2         7         6         8     9      180.000000       12.913556         2    ;  uncertainty k = 1.112914
         2         7         6         8     9        0.000000        2.313879         3    ;  uncertainty k = 0.139790
         2         7         6         8     9      180.000000        1.890760         4    ;  uncertainty k = 0.583781
         3         2         1        31     9        0.000000       -0.314654         1    ;  uncertainty k = 0.226951
         3         2         1        31     9      180.000000        1.743818         2    ;  uncertainty k = 0.068762
         3         2         1        31     9        0.000000        0.405853         3    ;  uncertainty k = 0.053254
         3         2         1        31     9      180.000000        0.145900         4    ;  uncertainty k = 0.015496
         3         2         1        32     9        0.000000       -0.314654         1    ;  uncertainty k = 0.226951
         3         2         1        32     9      180.000000        1.743818         2    ;  uncertainty k = 0.068762
         3         2         1        32     9        0.000000        0.405853         3    ;  uncertainty k = 0.053254
         3         2         1        32     9      180.000000        0.145900         4    ;  uncertainty k = 0.015496
         3         2         1        33     9        0.000000       -0.314654         1    ;  uncertainty k = 0.226951
         3         2         1        33     9      180.000000        1.743818         2    ;  uncertainty k = 0.068762
         3         2         1        33     9        0.000000        0.405853         3    ;  uncertainty k = 0.053254
         3         2         1        33     9      180.000000        0.145900         4    ;  uncertainty k = 0.015496
         3         2         7         6     9        0.000000       -0.601191         1    ;  uncertainty k = 0.754256
         3         2         7         6     9      180.000000       12.717534         2    ;  uncertainty k = 0.265298
         3         2         7         6     9        0.000000        1.506169         3    ;  uncertainty k = 0.401527
         3         2         7         6     9      180.000000        1.346569         4    ;  uncertainty k = 0.222214
         3         4         5         6     9        0.000000       -0.230455         1    ;  uncertainty k = 0.261239
         3         4         5         6     9      180.000000        8.639079         2    ;  uncertainty k = 0.578812
         3         4         5         6     9        0.000000        0.103576         3    ;  uncertainty k = 0.191716
         3         4         5         6     9      180.000000        1.330994         4    ;  uncertainty k = 0.299675
         3         4         5        26     9        0.000000        0.345761         1    ;  uncertainty k = 0.423563
         3         4         5        26     9      180.000000       11.200195         2    ;  uncertainty k = 0.130912
         3         4         5        26     9        0.000000        0.927419         3    ;  uncertainty k = 0.210722
         3         4         5        26     9      180.000000        1.580110         4    ;  uncertainty k = 0.112180
         4         3         2         7     9        0.000000        0.026274         1    ;  uncertainty k = 0.257912
         4         3         2         7     9      180.000000       11.992705         2    ;  uncertainty k = 0.342833
         4         3         2         7     9        0.000000       -0.719928         3    ;  uncertainty k = 0.486497
         4         3         2         7     9      180.000000        1.050895         4    ;  uncertainty k = 0.204777
         4         5         6         7     9        0.000000       -0.034708         1    ;  uncertainty k = 0.519305
         4         5         6         7     9      180.000000        6.687748         2    ;  uncertainty k = 0.430549
         4         5         6         7     9        0.000000        0.144295         3    ;  uncertainty k = 0.424479
         4         5         6         7     9      180.000000        1.367134         4    ;  uncertainty k = 0.141998
         4         5         6         8     9        0.000000        0.367059         1    ;  uncertainty k = 0.435882
         4         5         6         8     9      180.000000        5.322110         2    ;  uncertainty k = 0.853549
         4         5         6         8     9        0.000000        0.904993         3    ;  uncertainty k = 0.297208
         4         5         6         8     9      180.000000        1.586393         4    ;  uncertainty k = 0.253283
         4         5        26        27     9        0.000000        2.519743         1    ;  uncertainty k = 1.099563
         4         5        26        27     9      180.000000        4.031213         2    ;  uncertainty k = 0.278772
         4         5        26        27     9        0.000000        0.239323         3    ;  uncertainty k = 0.246171
         4         5        26        27     9      180.000000        0.077767         4    ;  uncertainty k = 0.083115
         4         5        26        30     9        0.000000        2.519743         1    ;  uncertainty k = 1.099563
         4         5        26        30     9      180.000000        4.031213         2    ;  uncertainty k = 0.278772
         4         5        26        30     9        0.000000        0.239323         3    ;  uncertainty k = 0.246171
         4         5        26        30     9      180.000000        0.077767         4    ;  uncertainty k = 0.083115
         5         4         3        34     9        0.000000        0.410020         1    ;  uncertainty k = 0.406107
         5         4         3        34     9      180.000000        8.689107         2    ;  uncertainty k = 0.888743
         5         4         3        34     9        0.000000        1.398034         3    ;  uncertainty k = 0.440588
         5         4         3        34     9      180.000000        1.781962         4    ;  uncertainty k = 0.319455
         5         6         8         9     9        0.000000       -3.388955         1    ;  uncertainty k = 1.585936
         5         6         8         9     9      180.000000        3.096833         2    ;  uncertainty k = 0.392818
         5         6         8         9     9        0.000000        0.332264         3    ;  uncertainty k = 0.638389
         5         6         8         9     9      180.000000        0.453684         4    ;  uncertainty k = 0.178147
         5         6         8        10     9        0.000000        4.288443         1    ;  uncertainty k = 0.476297
         5         6         8        10     9      180.000000        4.418313         2    ;  uncertainty k = 0.547251
         5         6         8        10     9        0.000000        0.151811         3    ;  uncertainty k = 0.383554
         5         6         8        10     9      180.000000        0.309952         4    ;  uncertainty k = 0.198332
         5        26        27        28     9        0.000000        0.531125         1    ;  uncertainty k = 2.508336
         5        26        27        28     9      180.000000       14.946865         2    ;  uncertainty k = 0.470188
         5        26        27        28     9        0.000000        1.435826         3    ;  uncertainty k = 0.549435
         5        26        27        28     9      180.000000        0.127888         4    ;  uncertainty k = 0.168898
         5        26        30        29     9        0.000000        0.531125         1    ;  uncertainty k = 2.508336
         5        26        30        29     9      180.000000       14.946865         2    ;  uncertainty k = 0.470188
         5        26        30        29     9        0.000000        1.435826         3    ;  uncertainty k = 0.549435
         5        26        30        29     9      180.000000        0.127888         4    ;  uncertainty k = 0.168898
         6         5         4        35     9        0.000000        0.209439         1    ;  uncertainty k = 0.682968
         6         5         4        35     9      180.000000        5.995235         2    ;  uncertainty k = 0.369558
         6         5         4        35     9        0.000000        1.000858         3    ;  uncertainty k = 0.268364
         6         5         4        35     9      180.000000        1.561061         4    ;  uncertainty k = 0.189129
         6         5        26        27     9        0.000000       -0.908329         1    ;  uncertainty k = 1.803455
         6         5        26        27     9      180.000000        4.313488         2    ;  uncertainty k = 0.391074
         6         5        26        27     9        0.000000        0.462737         3    ;  uncertainty k = 0.353624
         6         5        26        27     9      180.000000       -0.004209         4    ;  uncertainty k = 0.158926
         6         5        26        30     9        0.000000       -0.908329         1    ;  uncertainty k = 1.803455
         6         5        26        30     9      180.000000        4.313488         2    ;  uncertainty k = 0.391074
         6         5        26        30     9        0.000000        0.462737         3    ;  uncertainty k = 0.353624
         6         5        26        30     9      180.000000       -0.004209         4    ;  uncertainty k = 0.158926
         6         8        10        11     9        0.000000        2.681540         1    ;  uncertainty k = 0.399974
         6         8        10        11     9      180.000000        8.757762         2    ;  uncertainty k = 0.394346
         6         8        10        11     9        0.000000        1.587757         3    ;  uncertainty k = 0.225013
         6         8        10        11     9      180.000000       -0.196501         4    ;  uncertainty k = 0.145896
         6         8        10        17     9        0.000000        2.681542         1    ;  uncertainty k = 0.399974
         6         8        10        17     9      180.000000        8.757763         2    ;  uncertainty k = 0.394346
         6         8        10        17     9        0.000000        1.587756         3    ;  uncertainty k = 0.225013
         6         8        10        17     9      180.000000       -0.196502         4    ;  uncertainty k = 0.145895
         7         2         1        31     9        0.000000        0.483300         1    ;  uncertainty k = 0.236614
         7         2         1        31     9      180.000000        3.012351         2    ;  uncertainty k = 0.503462
         7         2         1        31     9        0.000000        0.523874         3    ;  uncertainty k = 0.083964
         7         2         1        31     9      180.000000        0.289846         4    ;  uncertainty k = 0.049118
         7         2         1        32     9        0.000000        0.483300         1    ;  uncertainty k = 0.236614
         7         2         1        32     9      180.000000        3.012351         2    ;  uncertainty k = 0.503462
         7         2         1        32     9        0.000000        0.523874         3    ;  uncertainty k = 0.083964
         7         2         1        32     9      180.000000        0.289846         4    ;  uncertainty k = 0.049118
         7         2         1        33     9        0.000000        0.483300         1    ;  uncertainty k = 0.236614
         7         2         1        33     9      180.000000        3.012351         2    ;  uncertainty k = 0.503462
         7         2         1        33     9        0.000000        0.523874         3    ;  uncertainty k = 0.083964
         7         2         1        33     9      180.000000        0.289846         4    ;  uncertainty k = 0.049118
         7         2         3        34     9        0.000000        0.118248         1    ;  uncertainty k = 0.284740
         7         2         3        34     9      180.000000        7.517679         2    ;  uncertainty k = 0.789860
         7         2         3        34     9        0.000000        1.056713         3    ;  uncertainty k = 0.168449
         7         2         3        34     9      180.000000        1.586683         4    ;  uncertainty k = 0.085795
         7         6         5        26     9        0.000000        0.295526         1    ;  uncertainty k = 0.224671
         7         6         5        26     9      180.000000        8.923579         2    ;  uncertainty k = 0.827079
         7         6         5        26     9        0.000000        0.964435         3    ;  uncertainty k = 0.310726
         7         6         5        26     9      180.000000        1.622643         4    ;  uncertainty k = 0.204693
         7         6         8         9     9        0.000000       -5.720840         1    ;  uncertainty k = 1.031267
         7         6         8         9     9      180.000000        3.369995         2    ;  uncertainty k = 0.240466
         7         6         8         9     9        0.000000       -0.156642         3    ;  uncertainty k = 0.303851
         7         6         8         9     9      180.000000        0.266982         4    ;  uncertainty k = 0.110799
         7         6         8        10     9        0.000000        3.585273         1    ;  uncertainty k = 0.936482
         7         6         8        10     9      180.000000        4.526204         2    ;  uncertainty k = 0.421478
         7         6         8        10     9        0.000000        0.704675         3    ;  uncertainty k = 0.479347
         7         6         8        10     9      180.000000        0.212261         4    ;  uncertainty k = 0.100246
         8         6         5        26     9        0.000000       -0.507079         1    ;  uncertainty k = 1.513554
         8         6         5        26     9      180.000000        8.586296         2    ;  uncertainty k = 0.685616
         8         6         5        26     9        0.000000        1.141023         3    ;  uncertainty k = 0.423487
         8         6         5        26     9      180.000000        1.234834         4    ;  uncertainty k = 0.397701
         8        10        11        12     9        0.000000       -0.234692         1    ;  uncertainty k = 0.719131
         8        10        11        12     9      180.000000       -0.550939         2    ;  uncertainty k = 0.327374
         8        10        11        12     9        0.000000        0.127409         3    ;  uncertainty k = 0.336977
         8        10        11        12     9      180.000000        0.807821         4    ;  uncertainty k = 0.133097
         8        10        11        36     9        0.000000        1.493739         1    ;  uncertainty k = 0.622765
         8        10        11        36     9      180.000000        0.082955         2    ;  uncertainty k = 0.129770
         8        10        11        36     9        0.000000       -0.077999         3    ;  uncertainty k = 0.057503
         8        10        11        36     9      180.000000        0.294783         4    ;  uncertainty k = 0.077031
         8        10        11        37     9        0.000000        1.493739         1    ;  uncertainty k = 0.622765
         8        10        11        37     9      180.000000        0.082955         2    ;  uncertainty k = 0.129770
         8        10        11        37     9        0.000000       -0.077999         3    ;  uncertainty k = 0.057503
         8        10        11        37     9      180.000000        0.294783         4    ;  uncertainty k = 0.077031
         8        10        17        16     9        0.000000       -0.234692         1    ;  uncertainty k = 0.719131
         8        10        17        16     9      180.000000       -0.550938         2    ;  uncertainty k = 0.327375
         8        10        17        16     9        0.000000        0.127409         3    ;  uncertainty k = 0.336977
         8        10        17        16     9      180.000000        0.807821         4    ;  uncertainty k = 0.133097
         8        10        17        44     9        0.000000        1.493740         1    ;  uncertainty k = 0.622764
         8        10        17        44     9      180.000000        0.082955         2    ;  uncertainty k = 0.129769
         8        10        17        44     9        0.000000       -0.077999         3    ;  uncertainty k = 0.057503
         8        10        17        44     9      180.000000        0.294783         4    ;  uncertainty k = 0.077031
         8        10        17        45     9        0.000000        1.493740         1    ;  uncertainty k = 0.622764
         8        10        17        45     9      180.000000        0.082955         2    ;  uncertainty k = 0.129769
         8        10        17        45     9        0.000000       -0.077999         3    ;  uncertainty k = 0.057503
         8        10        17        45     9      180.000000        0.294783         4    ;  uncertainty k = 0.077031
         9         8        10        11     9        0.000000        5.778414         1    ;  uncertainty k = 0.668374
         9         8        10        11     9      180.000000       16.915705         2    ;  uncertainty k = 0.206000
         9         8        10        11     9        0.000000        0.123956         3    ;  uncertainty k = 0.197833
         9         8        10        11     9      180.000000       -1.067296         4    ;  uncertainty k = 0.143644
         9         8        10        17     9        0.000000        5.778414         1    ;  uncertainty k = 0.668374
         9         8        10        17     9      180.000000       16.915701         2    ;  uncertainty k = 0.206001
         9         8        10        17     9        0.000000        0.123956         3    ;  uncertainty k = 0.197832
         9         8        10        17     9      180.000000       -1.067295         4    ;  uncertainty k = 0.143644
        10        11        12        13     9        0.000000       -2.784724         1    ;  uncertainty k = 1.073008
        10        11        12        13     9      180.000000        0.032544         2    ;  uncertainty k = 0.708328
        10        11        12        13     9        0.000000        1.618447         3    ;  uncertainty k = 0.213023
        10        11        12        13     9      180.000000       -0.200444         4    ;  uncertainty k = 0.095435
        10        11        12        16     9        0.000000       -0.649075         1    ;  uncertainty k = 0.767819
        10        11        12        16     9      180.000000        6.057223         2    ;  uncertainty k = 1.008608
        10        11        12        16     9        0.000000        0.393252         3    ;  uncertainty k = 0.309544
        10        11        12        16     9      180.000000       -1.124878         4    ;  uncertainty k = 0.148351
        10        11        12        38     9        0.000000        0.155293         1    ;  uncertainty k = 0.670576
        10        11        12        38     9      180.000000        0.822403         2    ;  uncertainty k = 0.397432
        10        11        12        38     9        0.000000        1.059757         3    ;  uncertainty k = 0.186849
        10        11        12        38     9      180.000000       -0.061287         4    ;  uncertainty k = 0.099806
        10        17        16        12     9        0.000000       -0.649078         1    ;  uncertainty k = 0.767820
        10        17        16        12     9      180.000000        6.057222         2    ;  uncertainty k = 1.008607
        10        17        16        12     9        0.000000        0.393251         3    ;  uncertainty k = 0.309543
        10        17        16        12     9      180.000000       -1.124878         4    ;  uncertainty k = 0.148352
        10        17        16        15     9        0.000000       -2.784723         1    ;  uncertainty k = 1.073007
        10        17        16        15     9      180.000000        0.032543         2    ;  uncertainty k = 0.708328
        10        17        16        15     9        0.000000        1.618446         3    ;  uncertainty k = 0.213023
        10        17        16        15     9      180.000000       -0.200444         4    ;  uncertainty k = 0.095435
        10        17        16        43     9        0.000000        0.155293         1    ;  uncertainty k = 0.670577
        10        17        16        43     9      180.000000        0.822403         2    ;  uncertainty k = 0.397432
        10        17        16        43     9        0.000000        1.059757         3    ;  uncertainty k = 0.186849
        10        17        16        43     9      180.000000       -0.061287         4    ;  uncertainty k = 0.099806
        11        10        17        16     9        0.000000       -0.534051         1    ;  uncertainty k = 0.966633
        11        10        17        16     9      180.000000        0.253073         2    ;  uncertainty k = 0.697422
        11        10        17        16     9        0.000000        0.818182         3    ;  uncertainty k = 0.177554
        11        10        17        16     9      180.000000        0.150911         4    ;  uncertainty k = 0.243821
        11        10        17        44     9        0.000000       -1.977152         1    ;  uncertainty k = 0.584091
        11        10        17        44     9      180.000000        1.226588         2    ;  uncertainty k = 0.468505
        11        10        17        44     9        0.000000        1.303704         3    ;  uncertainty k = 0.156629
        11        10        17        44     9      180.000000        0.305933         4    ;  uncertainty k = 0.122413
        11        10        17        45     9        0.000000       -1.977152         1    ;  uncertainty k = 0.584091
        11        10        17        45     9      180.000000        1.226588         2    ;  uncertainty k = 0.468505
        11        10        17        45     9        0.000000        1.303704         3    ;  uncertainty k = 0.156629
        11        10        17        45     9      180.000000        0.305933         4    ;  uncertainty k = 0.122413
        11        12        13        14     9        0.000000       -1.910127         1    ;  uncertainty k = 1.241859
        11        12        13        14     9      180.000000        1.001651         2    ;  uncertainty k = 0.853963
        11        12        13        14     9        0.000000        1.656293         3    ;  uncertainty k = 0.381212
        11        12        13        14     9      180.000000       -0.171904         4    ;  uncertainty k = 0.234611
        11        12        13        39     9        0.000000       -0.690367         1    ;  uncertainty k = 0.230727
        11        12        13        39     9      180.000000       -0.385889         2    ;  uncertainty k = 0.260442
        11        12        13        39     9        0.000000        0.564059         3    ;  uncertainty k = 0.183828
        11        12        13        39     9      180.000000       -0.078902         4    ;  uncertainty k = 0.096166
        11        12        13        40     9        0.000000       -0.690367         1    ;  uncertainty k = 0.230727
        11        12        13        40     9      180.000000       -0.385889         2    ;  uncertainty k = 0.260442
        11        12        13        40     9        0.000000        0.564059         3    ;  uncertainty k = 0.183828
        11        12        13        40     9      180.000000       -0.078902         4    ;  uncertainty k = 0.096166
        11        12        16        15     9        0.000000       -3.903984         1    ;  uncertainty k = 0.857355
        11        12        16        15     9      180.000000        0.983348         2    ;  uncertainty k = 1.000553
        11        12        16        15     9        0.000000        1.196959         3    ;  uncertainty k = 0.571496
        11        12        16        15     9      180.000000       -0.414129         4    ;  uncertainty k = 0.332478
        11        12        16        17     9        0.000000       -3.811859         1    ;  uncertainty k = 0.675792
        11        12        16        17     9      180.000000        0.929175         2    ;  uncertainty k = 0.941967
        11        12        16        17     9        0.000000        1.194017         3    ;  uncertainty k = 0.480481
        11        12        16        17     9      180.000000       -0.407459         4    ;  uncertainty k = 0.338642
        11        12        16        43     9        0.000000       -1.316017         1    ;  uncertainty k = 0.563251
        11        12        16        43     9      180.000000        0.589823         2    ;  uncertainty k = 0.361596
        11        12        16        43     9        0.000000        1.032739         3    ;  uncertainty k = 0.238984
        11        12        16        43     9      180.000000        0.080667         4    ;  uncertainty k = 0.058160
        12        11        10        17     9        0.000000       -0.534052         1    ;  uncertainty k = 0.966632
        12        11        10        17     9      180.000000        0.253073         2    ;  uncertainty k = 0.697423
        12        11        10        17     9        0.000000        0.818182         3    ;  uncertainty k = 0.177554
        12        11        10        17     9      180.000000        0.150911         4    ;  uncertainty k = 0.243822
        12        13        14        15     9        0.000000        0.409930         1    ;  uncertainty k = 1.033845
        12        13        14        15     9      180.000000        1.423324         2    ;  uncertainty k = 1.181229
        12        13        14        15     9        0.000000        0.860226         3    ;  uncertainty k = 0.332034
        12        13        14        15     9      180.000000        0.010764         4    ;  uncertainty k = 0.168708
        12        13        14        18     9        0.000000       -5.472949         1    ;  uncertainty k = 1.903108
        12        13        14        18     9      180.000000        0.716174         2    ;  uncertainty k = 0.687897
        12        13        14        18     9        0.000000        0.811634         3    ;  uncertainty k = 0.285402
        12        13        14        18     9      180.000000        0.315929         4    ;  uncertainty k = 0.127583
        12        16        15        14     9        0.000000       -0.248943         1    ;  uncertainty k = 1.669287
        12        16        15        14     9      180.000000        6.161828         2    ;  uncertainty k = 1.110762
        12        16        15        14     9        0.000000        0.670927         3    ;  uncertainty k = 0.347091
        12        16        15        14     9      180.000000       -1.488831         4    ;  uncertainty k = 0.506458
        12        16        15        41     9        0.000000        0.646623         1    ;  uncertainty k = 0.517783
        12        16        15        41     9      180.000000       -1.099688         2    ;  uncertainty k = 0.743823
        12        16        15        41     9        0.000000       -0.334778         3    ;  uncertainty k = 0.213643
        12        16        15        41     9      180.000000       -0.018734         4    ;  uncertainty k = 0.206091
        12        16        15        42     9        0.000000        0.646623         1    ;  uncertainty k = 0.517783
        12        16        15        42     9      180.000000       -1.099688         2    ;  uncertainty k = 0.743823
        12        16        15        42     9        0.000000       -0.334778         3    ;  uncertainty k = 0.213643
        12        16        15        42     9      180.000000       -0.018734         4    ;  uncertainty k = 0.206091
        12        16        17        44     9        0.000000        0.466428         1    ;  uncertainty k = 0.514718
        12        16        17        44     9      180.000000       -1.085923         2    ;  uncertainty k = 0.663113
        12        16        17        44     9        0.000000       -0.256974         3    ;  uncertainty k = 0.175595
        12        16        17        44     9      180.000000       -0.013323         4    ;  uncertainty k = 0.178263
        12        16        17        45     9        0.000000        0.466428         1    ;  uncertainty k = 0.514718
        12        16        17        45     9      180.000000       -1.085923         2    ;  uncertainty k = 0.663113
        12        16        17        45     9        0.000000       -0.256974         3    ;  uncertainty k = 0.175595
        12        16        17        45     9      180.000000       -0.013323         4    ;  uncertainty k = 0.178263
        13        12        11        36     9        0.000000       -0.501445         1    ;  uncertainty k = 0.128632
        13        12        11        36     9      180.000000       -0.403019         2    ;  uncertainty k = 0.190920
        13        12        11        36     9        0.000000        0.569585         3    ;  uncertainty k = 0.186919
        13        12        11        36     9      180.000000       -0.073502         4    ;  uncertainty k = 0.061663
        13        12        11        37     9        0.000000       -0.501445         1    ;  uncertainty k = 0.128632
        13        12        11        37     9      180.000000       -0.403019         2    ;  uncertainty k = 0.190920
        13        12        11        37     9        0.000000        0.569585         3    ;  uncertainty k = 0.186919
        13        12        11        37     9      180.000000       -0.073502         4    ;  uncertainty k = 0.061663
        13        12        16        15     9        0.000000       -3.896618         1    ;  uncertainty k = 1.087276
        13        12        16        15     9      180.000000        1.035026         2    ;  uncertainty k = 1.026287
        13        12        16        15     9        0.000000        1.207838         3    ;  uncertainty k = 0.671623
        13        12        16        15     9      180.000000       -0.436931         4    ;  uncertainty k = 0.343365
        13        12        16        17     9        0.000000       -3.903984         1    ;  uncertainty k = 0.857355
        13        12        16        17     9      180.000000        0.983349         2    ;  uncertainty k = 1.000554
        13        12        16        17     9        0.000000        1.196959         3    ;  uncertainty k = 0.571496
        13        12        16        17     9      180.000000       -0.414130         4    ;  uncertainty k = 0.332478
        13        12        16        43     9        0.000000       -1.223112         1    ;  uncertainty k = 0.611378
        13        12        16        43     9      180.000000        0.489633         2    ;  uncertainty k = 0.414978
        13        12        16        43     9        0.000000        0.997353         3    ;  uncertainty k = 0.241670
        13        12        16        43     9      180.000000        0.066778         4    ;  uncertainty k = 0.087125
        13        14        15        16     9        0.000000        0.409933         1    ;  uncertainty k = 1.033845
        13        14        15        16     9      180.000000        1.423324         2    ;  uncertainty k = 1.181231
        13        14        15        16     9        0.000000        0.860226         3    ;  uncertainty k = 0.332034
        13        14        15        16     9      180.000000        0.010764         4    ;  uncertainty k = 0.168707
        13        14        15        41     9        0.000000       -2.106812         1    ;  uncertainty k = 0.722680
        13        14        15        41     9      180.000000        1.271153         2    ;  uncertainty k = 0.391419
        13        14        15        41     9        0.000000        1.144989         3    ;  uncertainty k = 0.081015
        13        14        15        41     9      180.000000        0.249969         4    ;  uncertainty k = 0.124009
        13        14        15        42     9        0.000000       -2.106812         1    ;  uncertainty k = 0.722680
        13        14        15        42     9      180.000000        1.271153         2    ;  uncertainty k = 0.391419
        13        14        15        42     9        0.000000        1.144989         3    ;  uncertainty k = 0.081015
        13        14        15        42     9      180.000000        0.249969         4    ;  uncertainty k = 0.124009
        13        14        18        19     9        0.000000        5.106260         1    ;  uncertainty k = 0.513054
        13        14        18        19     9      180.000000       11.756746         2    ;  uncertainty k = 0.134927
        13        14        18        19     9        0.000000        0.174634         3    ;  uncertainty k = 0.195419
        13        14        18        19     9      180.000000       -0.347384         4    ;  uncertainty k = 0.051935
        13        14        18        25     9        0.000000        5.106263         1    ;  uncertainty k = 0.513054
        13        14        18        25     9      180.000000       11.756747         2    ;  uncertainty k = 0.134927
        13        14        18        25     9        0.000000        0.174634         3    ;  uncertainty k = 0.195419
        13        14        18        25     9      180.000000       -0.347384         4    ;  uncertainty k = 0.051935
        14        13        12        16     9        0.000000       -0.248942         1    ;  uncertainty k = 1.669285
        14        13        12        16     9      180.000000        6.161827         2    ;  uncertainty k = 1.110764
        14        13        12        16     9        0.000000        0.670927         3    ;  uncertainty k = 0.347091
        14        13        12        16     9      180.000000       -1.488831         4    ;  uncertainty k = 0.506459
        14        13        12        38     9        0.000000        0.565926         1    ;  uncertainty k = 0.856650
        14        13        12        38     9      180.000000        1.324273         2    ;  uncertainty k = 0.513613
        14        13        12        38     9        0.000000        1.171168         3    ;  uncertainty k = 0.217599
        14        13        12        38     9      180.000000       -0.072433         4    ;  uncertainty k = 0.184790
        14        15        16        17     9        0.000000       -1.910129         1    ;  uncertainty k = 1.241856
        14        15        16        17     9      180.000000        1.001650         2    ;  uncertainty k = 0.853963
        14        15        16        17     9        0.000000        1.656292         3    ;  uncertainty k = 0.381212
        14        15        16        17     9      180.000000       -0.171903         4    ;  uncertainty k = 0.234611
        14        15        16        43     9        0.000000        0.565926         1    ;  uncertainty k = 0.856649
        14        15        16        43     9      180.000000        1.324274         2    ;  uncertainty k = 0.513615
        14        15        16        43     9        0.000000        1.171169         3    ;  uncertainty k = 0.217600
        14        15        16        43     9      180.000000       -0.072433         4    ;  uncertainty k = 0.184790
        14        18        19        20     9        0.000000        0.521918         1    ;  uncertainty k = 0.979110
        14        18        19        20     9      180.000000       10.533270         2    ;  uncertainty k = 0.414227
        14        18        19        20     9        0.000000        1.726080         3    ;  uncertainty k = 0.365718
        14        18        19        20     9      180.000000        0.994637         4    ;  uncertainty k = 0.141069
        14        18        25        23     9        0.000000        0.521916         1    ;  uncertainty k = 0.979112
        14        18        25        23     9      180.000000       10.533272         2    ;  uncertainty k = 0.414227
        14        18        25        23     9        0.000000        1.726080         3    ;  uncertainty k = 0.365718
        14        18        25        23     9      180.000000        0.994636         4    ;  uncertainty k = 0.141069
        15        14        13        39     9        0.000000       -2.106812         1    ;  uncertainty k = 0.722683
        15        14        13        39     9      180.000000        1.271152         2    ;  uncertainty k = 0.391418
        15        14        13        39     9        0.000000        1.144990         3    ;  uncertainty k = 0.081015
        15        14        13        39     9      180.000000        0.249969         4    ;  uncertainty k = 0.124009
        15        14        13        40     9        0.000000       -2.106812         1    ;  uncertainty k = 0.722683
        15        14        13        40     9      180.000000        1.271152         2    ;  uncertainty k = 0.391418
        15        14        13        40     9        0.000000        1.144990         3    ;  uncertainty k = 0.081015
        15        14        13        40     9      180.000000        0.249969         4    ;  uncertainty k = 0.124009
        15        14        18        19     9        0.000000        5.106260         1    ;  uncertainty k = 0.513054
        15        14        18        19     9      180.000000       11.756746         2    ;  uncertainty k = 0.134928
        15        14        18        19     9        0.000000        0.174633         3    ;  uncertainty k = 0.195420
        15        14        18        19     9      180.000000       -0.347384         4    ;  uncertainty k = 0.051935
        15        14        18        25     9        0.000000        5.106262         1    ;  uncertainty k = 0.513055
        15        14        18        25     9      180.000000       11.756747         2    ;  uncertainty k = 0.134927
        15        14        18        25     9        0.000000        0.174633         3    ;  uncertainty k = 0.195419
        15        14        18        25     9      180.000000       -0.347384         4    ;  uncertainty k = 0.051935
        15        16        12        38     9        0.000000       -1.223111         1    ;  uncertainty k = 0.611378
        15        16        12        38     9      180.000000        0.489636         2    ;  uncertainty k = 0.414976
        15        16        12        38     9        0.000000        0.997354         3    ;  uncertainty k = 0.241670
        15        16        12        38     9      180.000000        0.066778         4    ;  uncertainty k = 0.087125
        15        16        17        44     9        0.000000       -0.501444         1    ;  uncertainty k = 0.128632
        15        16        17        44     9      180.000000       -0.403017         2    ;  uncertainty k = 0.190921
        15        16        17        44     9        0.000000        0.569586         3    ;  uncertainty k = 0.186918
        15        16        17        44     9      180.000000       -0.073503         4    ;  uncertainty k = 0.061663
        15        16        17        45     9        0.000000       -0.501444         1    ;  uncertainty k = 0.128632
        15        16        17        45     9      180.000000       -0.403017         2    ;  uncertainty k = 0.190921
        15        16        17        45     9        0.000000        0.569586         3    ;  uncertainty k = 0.186918
        15        16        17        45     9      180.000000       -0.073503         4    ;  uncertainty k = 0.061663
        16        12        11        36     9        0.000000        0.466428         1    ;  uncertainty k = 0.514719
        16        12        11        36     9      180.000000       -1.085923         2    ;  uncertainty k = 0.663113
        16        12        11        36     9        0.000000       -0.256973         3    ;  uncertainty k = 0.175595
        16        12        11        36     9      180.000000       -0.013323         4    ;  uncertainty k = 0.178264
        16        12        11        37     9        0.000000        0.466428         1    ;  uncertainty k = 0.514719
        16        12        11        37     9      180.000000       -1.085923         2    ;  uncertainty k = 0.663113
        16        12        11        37     9        0.000000       -0.256973         3    ;  uncertainty k = 0.175595
        16        12        11        37     9      180.000000       -0.013323         4    ;  uncertainty k = 0.178264
        16        12        13        39     9        0.000000        0.646623         1    ;  uncertainty k = 0.517782
        16        12        13        39     9      180.000000       -1.099688         2    ;  uncertainty k = 0.743824
        16        12        13        39     9        0.000000       -0.334778         3    ;  uncertainty k = 0.213644
        16        12        13        39     9      180.000000       -0.018734         4    ;  uncertainty k = 0.206091
        16        12        13        40     9        0.000000        0.646623         1    ;  uncertainty k = 0.517782
        16        12        13        40     9      180.000000       -1.099688         2    ;  uncertainty k = 0.743824
        16        12        13        40     9        0.000000       -0.334778         3    ;  uncertainty k = 0.213644
        16        12        13        40     9      180.000000       -0.018734         4    ;  uncertainty k = 0.206091
        16        15        14        18     9        0.000000       -5.472951         1    ;  uncertainty k = 1.903105
        16        15        14        18     9      180.000000        0.716173         2    ;  uncertainty k = 0.687896
        16        15        14        18     9        0.000000        0.811634         3    ;  uncertainty k = 0.285402
        16        15        14        18     9      180.000000        0.315929         4    ;  uncertainty k = 0.127584
        17        10        11        36     9        0.000000       -1.977150         1    ;  uncertainty k = 0.584089
        17        10        11        36     9      180.000000        1.226589         2    ;  uncertainty k = 0.468505
        17        10        11        36     9        0.000000        1.303704         3    ;  uncertainty k = 0.156629
        17        10        11        36     9      180.000000        0.305932         4    ;  uncertainty k = 0.122413
        17        10        11        37     9        0.000000       -1.977150         1    ;  uncertainty k = 0.584089
        17        10        11        37     9      180.000000        1.226589         2    ;  uncertainty k = 0.468505
        17        10        11        37     9        0.000000        1.303704         3    ;  uncertainty k = 0.156629
        17        10        11        37     9      180.000000        0.305932         4    ;  uncertainty k = 0.122413
        17        16        12        38     9        0.000000       -1.316018         1    ;  uncertainty k = 0.563251
        17        16        12        38     9      180.000000        0.589823         2    ;  uncertainty k = 0.361594
        17        16        12        38     9        0.000000        1.032739         3    ;  uncertainty k = 0.238984
        17        16        12        38     9      180.000000        0.080667         4    ;  uncertainty k = 0.058160
        17        16        15        41     9        0.000000       -0.690368         1    ;  uncertainty k = 0.230726
        17        16        15        41     9      180.000000       -0.385889         2    ;  uncertainty k = 0.260443
        17        16        15        41     9        0.000000        0.564060         3    ;  uncertainty k = 0.183828
        17        16        15        41     9      180.000000       -0.078902         4    ;  uncertainty k = 0.096166
        17        16        15        42     9        0.000000       -0.690368         1    ;  uncertainty k = 0.230726
        17        16        15        42     9      180.000000       -0.385889         2    ;  uncertainty k = 0.260443
        17        16        15        42     9        0.000000        0.564060         3    ;  uncertainty k = 0.183828
        17        16        15        42     9      180.000000       -0.078902         4    ;  uncertainty k = 0.096166
        18        14        13        39     9        0.000000       -0.203573         1    ;  uncertainty k = 0.772782
        18        14        13        39     9      180.000000        1.020940         2    ;  uncertainty k = 0.423812
        18        14        13        39     9        0.000000        0.580937         3    ;  uncertainty k = 0.130796
        18        14        13        39     9      180.000000        0.377931         4    ;  uncertainty k = 0.101923
        18        14        13        40     9        0.000000       -0.203573         1    ;  uncertainty k = 0.772782
        18        14        13        40     9      180.000000        1.020940         2    ;  uncertainty k = 0.423812
        18        14        13        40     9        0.000000        0.580937         3    ;  uncertainty k = 0.130796
        18        14        13        40     9      180.000000        0.377931         4    ;  uncertainty k = 0.101923
        18        14        15        41     9        0.000000       -0.203571         1    ;  uncertainty k = 0.772780
        18        14        15        41     9      180.000000        1.020939         2    ;  uncertainty k = 0.423812
        18        14        15        41     9        0.000000        0.580937         3    ;  uncertainty k = 0.130796
        18        14        15        41     9      180.000000        0.377931         4    ;  uncertainty k = 0.101923
        18        14        15        42     9        0.000000       -0.203571         1    ;  uncertainty k = 0.772780
        18        14        15        42     9      180.000000        1.020939         2    ;  uncertainty k = 0.423812
        18        14        15        42     9        0.000000        0.580937         3    ;  uncertainty k = 0.130796
        18        14        15        42     9      180.000000        0.377931         4    ;  uncertainty k = 0.101923
        18        19        20        21     9        0.000000        0.048316         1    ;  uncertainty k = 0.979764
        18        19        20        21     9      180.000000       15.003732         2    ;  uncertainty k = 0.544477
        18        19        20        21     9        0.000000        2.381190         3    ;  uncertainty k = 0.363195
        18        19        20        21     9      180.000000        1.660639         4    ;  uncertainty k = 0.462768
        18        19        20        22     9        0.000000       -0.347752         1    ;  uncertainty k = 0.474198
        18        19        20        22     9      180.000000       15.075410         2    ;  uncertainty k = 0.177114
        18        19        20        22     9        0.000000        0.171723         3    ;  uncertainty k = 0.438996
        18        19        20        22     9      180.000000        1.128465         4    ;  uncertainty k = 0.364424
        18        25        23        22     9        0.000000       -0.347752         1    ;  uncertainty k = 0.474196
        18        25        23        22     9      180.000000       15.075408         2    ;  uncertainty k = 0.177114
        18        25        23        22     9        0.000000        0.171722         3    ;  uncertainty k = 0.438995
        18        25        23        22     9      180.000000        1.128465         4    ;  uncertainty k = 0.364424
        18        25        23        24     9        0.000000        0.048316         1    ;  uncertainty k = 0.979765
        18        25        23        24     9      180.000000       15.003732         2    ;  uncertainty k = 0.544476
        18        25        23        24     9        0.000000        2.381190         3    ;  uncertainty k = 0.363195
        18        25        23        24     9      180.000000        1.660638         4    ;  uncertainty k = 0.462768
        19        18        25        23     9        0.000000       -0.609061         1    ;  uncertainty k = 0.758200
        19        18        25        23     9      180.000000        8.692612         2    ;  uncertainty k = 0.791820
        19        18        25        23     9        0.000000        0.670287         3    ;  uncertainty k = 0.621160
        19        18        25        23     9      180.000000        0.786580         4    ;  uncertainty k = 0.112572
        19        20        21        46     9        0.000000        0.603363         1    ;  uncertainty k = 0.264623
        19        20        21        46     9      180.000000        3.634558         2    ;  uncertainty k = 0.065841
        19        20        21        46     9        0.000000        0.492173         3    ;  uncertainty k = 0.029987
        19        20        21        46     9      180.000000        0.275109         4    ;  uncertainty k = 0.045162
        19        20        21        47     9        0.000000        0.603363         1    ;  uncertainty k = 0.264623
        19        20        21        47     9      180.000000        3.634558         2    ;  uncertainty k = 0.065841
        19        20        21        47     9        0.000000        0.492173         3    ;  uncertainty k = 0.029987
        19        20        21        47     9      180.000000        0.275109         4    ;  uncertainty k = 0.045162
        19        20        21        48     9        0.000000        0.603363         1    ;  uncertainty k = 0.264623
        19        20        21        48     9      180.000000        3.634558         2    ;  uncertainty k = 0.065841
        19        20        21        48     9        0.000000        0.492173         3    ;  uncertainty k = 0.029987
        19        20        21        48     9      180.000000        0.275109         4    ;  uncertainty k = 0.045162
        19        20        22        23     9        0.000000       -0.216009         1    ;  uncertainty k = 0.356935
        19        20        22        23     9      180.000000       11.910554         2    ;  uncertainty k = 0.424708
        19        20        22        23     9        0.000000       -1.407438         3    ;  uncertainty k = 0.758939
        19        20        22        23     9      180.000000        0.980955         4    ;  uncertainty k = 0.077686
        19        20        22        49     9        0.000000        0.224609         1    ;  uncertainty k = 0.474806
        19        20        22        49     9      180.000000        8.441724         2    ;  uncertainty k = 0.328864
        19        20        22        49     9        0.000000        1.108367         3    ;  uncertainty k = 0.321335
        19        20        22        49     9      180.000000        1.600213         4    ;  uncertainty k = 0.093449
        20        19        18        25     9        0.000000       -0.609062         1    ;  uncertainty k = 0.758198
        20        19        18        25     9      180.000000        8.692615         2    ;  uncertainty k = 0.791819
        20        19        18        25     9        0.000000        0.670287         3    ;  uncertainty k = 0.621159
        20        19        18        25     9      180.000000        0.786580         4    ;  uncertainty k = 0.112572
        20        22        23        24     9        0.000000       -0.007202         1    ;  uncertainty k = 0.501718
        20        22        23        24     9      180.000000        7.613772         2    ;  uncertainty k = 0.266338
        20        22        23        24     9        0.000000        0.944105         3    ;  uncertainty k = 0.227995
        20        22        23        24     9      180.000000        1.305658         4    ;  uncertainty k = 0.239337
        20        22        23        25     9        0.000000       -0.216009         1    ;  uncertainty k = 0.356937
        20        22        23        25     9      180.000000       11.910556         2    ;  uncertainty k = 0.424710
        20        22        23        25     9        0.000000       -1.407438         3    ;  uncertainty k = 0.758939
        20        22        23        25     9      180.000000        0.980954         4    ;  uncertainty k = 0.077687
        21        20        22        23     9        0.000000       -0.007201         1    ;  uncertainty k = 0.501715
        21        20        22        23     9      180.000000        7.613773         2    ;  uncertainty k = 0.266339
        21        20        22        23     9        0.000000        0.944105         3    ;  uncertainty k = 0.227996
        21        20        22        23     9      180.000000        1.305657         4    ;  uncertainty k = 0.239337
        21        20        22        49     9        0.000000       -0.261676         1    ;  uncertainty k = 0.315637
        21        20        22        49     9      180.000000        6.874961         2    ;  uncertainty k = 0.342649
        21        20        22        49     9        0.000000        0.656535         3    ;  uncertainty k = 0.284604
        21        20        22        49     9      180.000000        0.765991         4    ;  uncertainty k = 0.276600
        22        20        21        46     9        0.000000       -0.250295         1    ;  uncertainty k = 0.274872
        22        20        21        46     9      180.000000        2.290443         2    ;  uncertainty k = 0.171778
        22        20        21        46     9        0.000000        0.278064         3    ;  uncertainty k = 0.038016
        22        20        21        46     9      180.000000        0.146673         4    ;  uncertainty k = 0.025666
        22        20        21        47     9        0.000000       -0.250295         1    ;  uncertainty k = 0.274872
        22        20        21        47     9      180.000000        2.290443         2    ;  uncertainty k = 0.171778
        22        20        21        47     9        0.000000        0.278064         3    ;  uncertainty k = 0.038016
        22        20        21        47     9      180.000000        0.146673         4    ;  uncertainty k = 0.025666
        22        20        21        48     9        0.000000       -0.250295         1    ;  uncertainty k = 0.274872
        22        20        21        48     9      180.000000        2.290443         2    ;  uncertainty k = 0.171778
        22        20        21        48     9        0.000000        0.278064         3    ;  uncertainty k = 0.038016
        22        20        21        48     9      180.000000        0.146673         4    ;  uncertainty k = 0.025666
        22        23        24        50     9        0.000000       -0.250296         1    ;  uncertainty k = 0.274873
        22        23        24        50     9      180.000000        2.290444         2    ;  uncertainty k = 0.171778
        22        23        24        50     9        0.000000        0.278065         3    ;  uncertainty k = 0.038017
        22        23        24        50     9      180.000000        0.146673         4    ;  uncertainty k = 0.025666
        22        23        24        51     9        0.000000       -0.250296         1    ;  uncertainty k = 0.274873
        22        23        24        51     9      180.000000        2.290444         2    ;  uncertainty k = 0.171778
        22        23        24        51     9        0.000000        0.278065         3    ;  uncertainty k = 0.038017
        22        23        24        51     9      180.000000        0.146673         4    ;  uncertainty k = 0.025666
        22        23        24        52     9        0.000000       -0.250296         1    ;  uncertainty k = 0.274873
        22        23        24        52     9      180.000000        2.290444         2    ;  uncertainty k = 0.171778
        22        23        24        52     9        0.000000        0.278065         3    ;  uncertainty k = 0.038017
        22        23        24        52     9      180.000000        0.146673         4    ;  uncertainty k = 0.025666
        24        23        22        49     9        0.000000       -0.261676         1    ;  uncertainty k = 0.315638
        24        23        22        49     9      180.000000        6.874962         2    ;  uncertainty k = 0.342650
        24        23        22        49     9        0.000000        0.656534         3    ;  uncertainty k = 0.284603
        24        23        22        49     9      180.000000        0.765991         4    ;  uncertainty k = 0.276600
        25        23        22        49     9        0.000000        0.224607         1    ;  uncertainty k = 0.474804
        25        23        22        49     9      180.000000        8.441723         2    ;  uncertainty k = 0.328864
        25        23        22        49     9        0.000000        1.108367         3    ;  uncertainty k = 0.321335
        25        23        22        49     9      180.000000        1.600213         4    ;  uncertainty k = 0.093449
        25        23        24        50     9        0.000000        0.603365         1    ;  uncertainty k = 0.264621
        25        23        24        50     9      180.000000        3.634560         2    ;  uncertainty k = 0.065840
        25        23        24        50     9        0.000000        0.492173         3    ;  uncertainty k = 0.029988
        25        23        24        50     9      180.000000        0.275108         4    ;  uncertainty k = 0.045162
        25        23        24        51     9        0.000000        0.603365         1    ;  uncertainty k = 0.264621
        25        23        24        51     9      180.000000        3.634560         2    ;  uncertainty k = 0.065840
        25        23        24        51     9        0.000000        0.492173         3    ;  uncertainty k = 0.029988
        25        23        24        51     9      180.000000        0.275108         4    ;  uncertainty k = 0.045162
        25        23        24        52     9        0.000000        0.603365         1    ;  uncertainty k = 0.264621
        25        23        24        52     9      180.000000        3.634560         2    ;  uncertainty k = 0.065840
        25        23        24        52     9        0.000000        0.492173         3    ;  uncertainty k = 0.029988
        25        23        24        52     9      180.000000        0.275108         4    ;  uncertainty k = 0.045162
        26         5         4        35     9        0.000000        0.331107         1    ;  uncertainty k = 0.675467
        26         5         4        35     9      180.000000        8.453037         2    ;  uncertainty k = 0.330113
        26         5         4        35     9        0.000000        0.810936         3    ;  uncertainty k = 0.252689
        26         5         4        35     9      180.000000        1.301440         4    ;  uncertainty k = 0.153344
        26        27        28        29     9        0.000000       -0.033115         1    ;  uncertainty k = 0.483587
        26        27        28        29     9      180.000000       24.405003         2    ;  uncertainty k = 0.368822
        26        27        28        29     9        0.000000       -9.715923         3    ;  uncertainty k = 1.902651
        26        27        28        29     9      180.000000        2.449437         4    ;  uncertainty k = 0.664461
        26        27        28        53     9        0.000000        0.268485         1    ;  uncertainty k = 0.769262
        26        27        28        53     9      180.000000       22.136065         2    ;  uncertainty k = 0.467226
        26        27        28        53     9        0.000000        1.458603         3    ;  uncertainty k = 0.423598
        26        27        28        53     9      180.000000        1.223761         4    ;  uncertainty k = 0.635938
        26        30        29        28     9        0.000000       -0.033115         1    ;  uncertainty k = 0.483587
        26        30        29        28     9      180.000000       24.405003         2    ;  uncertainty k = 0.368822
        26        30        29        28     9        0.000000       -9.715923         3    ;  uncertainty k = 1.902651
        26        30        29        28     9      180.000000        2.449437         4    ;  uncertainty k = 0.664461
        26        30        29        54     9        0.000000        0.268485         1    ;  uncertainty k = 0.769262
        26        30        29        54     9      180.000000       22.136065         2    ;  uncertainty k = 0.467226
        26        30        29        54     9        0.000000        1.458603         3    ;  uncertainty k = 0.423598
        26        30        29        54     9      180.000000        1.223761         4    ;  uncertainty k = 0.635938
        27        26        30        29     9        0.000000       -0.794563         1    ;  uncertainty k = 0.796070
        27        26        30        29     9      180.000000       21.988509         2    ;  uncertainty k = 0.251742
        27        26        30        29     9        0.000000       -8.378258         3    ;  uncertainty k = 1.346371
        27        26        30        29     9      180.000000        1.279753         4    ;  uncertainty k = 0.580873
        27        28        29        30     9        0.000000       -0.476344         1    ;  uncertainty k = 0.946822
        27        28        29        30     9      180.000000       16.667090         2    ;  uncertainty k = 1.318275
        27        28        29        30     9        0.000000      -12.092095         3    ;  uncertainty k = 1.850997
        27        28        29        30     9      180.000000        2.013591         4    ;  uncertainty k = 0.764311
        27        28        29        54     9        0.000000        0.161215         1    ;  uncertainty k = 0.964816
        27        28        29        54     9      180.000000       11.802884         2    ;  uncertainty k = 0.594833
        27        28        29        54     9        0.000000        0.938746         3    ;  uncertainty k = 0.744107
        27        28        29        54     9      180.000000        0.633505         4    ;  uncertainty k = 0.169776
        28        27        26        30     9        0.000000       -0.794563         1    ;  uncertainty k = 0.796070
        28        27        26        30     9      180.000000       21.988509         2    ;  uncertainty k = 0.251742
        28        27        26        30     9        0.000000       -8.378258         3    ;  uncertainty k = 1.346371
        28        27        26        30     9      180.000000        1.279753         4    ;  uncertainty k = 0.580873
        30        29        28        53     9        0.000000        0.161215         1    ;  uncertainty k = 0.964816
        30        29        28        53     9      180.000000       11.802884         2    ;  uncertainty k = 0.594833
        30        29        28        53     9        0.000000        0.938746         3    ;  uncertainty k = 0.744107
        30        29        28        53     9      180.000000        0.633505         4    ;  uncertainty k = 0.169776
        34         3         4        35     9        0.000000       -0.123858         1    ;  uncertainty k = 0.357527
        34         3         4        35     9      180.000000        8.562214         2    ;  uncertainty k = 0.422556
        34         3         4        35     9        0.000000       -0.581026         3    ;  uncertainty k = 0.402299
        34         3         4        35     9      180.000000        0.177547         4    ;  uncertainty k = 0.229362
        36        11        12        38     9        0.000000        0.418333         1    ;  uncertainty k = 0.292842
        36        11        12        38     9      180.000000       -0.319954         2    ;  uncertainty k = 0.247076
        36        11        12        38     9        0.000000        0.346836         3    ;  uncertainty k = 0.129266
        36        11        12        38     9      180.000000       -0.039168         4    ;  uncertainty k = 0.063842
        37        11        12        38     9        0.000000        0.418333         1    ;  uncertainty k = 0.292842
        37        11        12        38     9      180.000000       -0.319954         2    ;  uncertainty k = 0.247076
        37        11        12        38     9        0.000000        0.346836         3    ;  uncertainty k = 0.129266
        37        11        12        38     9      180.000000       -0.039168         4    ;  uncertainty k = 0.063842
        38        12        13        39     9        0.000000        0.359874         1    ;  uncertainty k = 0.316165
        38        12        13        39     9      180.000000       -0.360044         2    ;  uncertainty k = 0.197281
        38        12        13        39     9        0.000000        0.364903         3    ;  uncertainty k = 0.128583
        38        12        13        39     9      180.000000       -0.036803         4    ;  uncertainty k = 0.081429
        38        12        13        40     9        0.000000        0.359874         1    ;  uncertainty k = 0.316165
        38        12        13        40     9      180.000000       -0.360044         2    ;  uncertainty k = 0.197281
        38        12        13        40     9        0.000000        0.364903         3    ;  uncertainty k = 0.128583
        38        12        13        40     9      180.000000       -0.036803         4    ;  uncertainty k = 0.081429
        38        12        16        43     9        0.000000        3.534565         1    ;  uncertainty k = 1.183407
        38        12        16        43     9      180.000000       -0.219653         2    ;  uncertainty k = 0.641097
        38        12        16        43     9        0.000000        0.578188         3    ;  uncertainty k = 0.579178
        38        12        16        43     9      180.000000        0.212498         4    ;  uncertainty k = 0.291708
        41        15        16        43     9        0.000000        0.359873         1    ;  uncertainty k = 0.316164
        41        15        16        43     9      180.000000       -0.360044         2    ;  uncertainty k = 0.197280
        41        15        16        43     9        0.000000        0.364903         3    ;  uncertainty k = 0.128583
        41        15        16        43     9      180.000000       -0.036803         4    ;  uncertainty k = 0.081430
        42        15        16        43     9        0.000000        0.359873         1    ;  uncertainty k = 0.316164
        42        15        16        43     9      180.000000       -0.360044         2    ;  uncertainty k = 0.197280
        42        15        16        43     9        0.000000        0.364903         3    ;  uncertainty k = 0.128583
        42        15        16        43     9      180.000000       -0.036803         4    ;  uncertainty k = 0.081430
        43        16        17        44     9        0.000000        0.418332         1    ;  uncertainty k = 0.292842
        43        16        17        44     9      180.000000       -0.319957         2    ;  uncertainty k = 0.247076
        43        16        17        44     9        0.000000        0.346837         3    ;  uncertainty k = 0.129266
        43        16        17        44     9      180.000000       -0.039168         4    ;  uncertainty k = 0.063842
        43        16        17        45     9        0.000000        0.418332         1    ;  uncertainty k = 0.292842
        43        16        17        45     9      180.000000       -0.319957         2    ;  uncertainty k = 0.247076
        43        16        17        45     9        0.000000        0.346837         3    ;  uncertainty k = 0.129266
        43        16        17        45     9      180.000000       -0.039168         4    ;  uncertainty k = 0.063842
        53        28        29        54     9        0.000000       -0.942648         1    ;  uncertainty k = 1.117582
        53        28        29        54     9      180.000000        4.272735         2    ;  uncertainty k = 0.760818
        53        28        29        54     9        0.000000        1.314863         3    ;  uncertainty k = 0.353594
        53        28        29        54     9      180.000000        0.150448         4    ;  uncertainty k = 0.159865

[ dihedrals ] ; impropers
;       ai        aj        ak        al funct           phase               k        pn
         2         1         3         7     4      180.000000       27.351877         2    ;  uncertainty k = 0.136786
         2         3         7         1     4      180.000000       27.351877         2    ;  uncertainty k = 0.136786
         2         7         1         3     4      180.000000       27.351877         2    ;  uncertainty k = 0.136786
         3         2         4        34     4      180.000000        3.135738         2    ;  uncertainty k = 0.201664
         3         4        34         2     4      180.000000        3.135738         2    ;  uncertainty k = 0.201664
         3        34         2         4     4      180.000000        3.135738         2    ;  uncertainty k = 0.201664
         4         3         5        35     4      180.000000        5.570497         2    ;  uncertainty k = 0.124256
         4         5        35         3     4      180.000000        5.570497         2    ;  uncertainty k = 0.124256
         4        35         3         5     4      180.000000        5.570497         2    ;  uncertainty k = 0.124256
         5         4         6        26     4      180.000000       11.628658         2    ;  uncertainty k = 0.193809
         5         6        26         4     4      180.000000       11.628658         2    ;  uncertainty k = 0.193809
         5        26         4         6     4      180.000000       11.628658         2    ;  uncertainty k = 0.193809
         6         5         7         8     4      180.000000       19.971608         2    ;  uncertainty k = 0.195218
         6         7         8         5     4      180.000000       19.971608         2    ;  uncertainty k = 0.195218
         6         8         5         7     4      180.000000       19.971608         2    ;  uncertainty k = 0.195218
         8         6         9        10     4      180.000000       48.981708         2    ;  uncertainty k = 0.023800
         8         9        10         6     4      180.000000       48.981708         2    ;  uncertainty k = 0.023800
         8        10         6         9     4      180.000000       48.981708         2    ;  uncertainty k = 0.023800
        14        13        15        18     4      180.000000        0.056063         2    ;  uncertainty k = 0.081769
        14        15        18        13     4      180.000000        0.056063         2    ;  uncertainty k = 0.081769
        14        18        13        15     4      180.000000        0.056063         2    ;  uncertainty k = 0.081769
        18        14        19        25     4      180.000000       42.641376         2    ;  uncertainty k = 0.061085
        18        19        25        14     4      180.000000       42.641376         2    ;  uncertainty k = 0.061085
        18        25        14        19     4      180.000000       42.641376         2    ;  uncertainty k = 0.061085
        20        19        21        22     4      180.000000       31.911121         2    ;  uncertainty k = 0.074029
        20        21        22        19     4      180.000000       31.911121         2    ;  uncertainty k = 0.074029
        20        22        19        21     4      180.000000       31.911121         2    ;  uncertainty k = 0.074029
        22        20        23        49     4      180.000000        1.149578         2    ;  uncertainty k = 0.472327
        22        23        49        20     4      180.000000        1.149578         2    ;  uncertainty k = 0.472327
        22        49        20        23     4      180.000000        1.149578         2    ;  uncertainty k = 0.472327
        23        22        24        25     4      180.000000       31.911116         2    ;  uncertainty k = 0.074029
        23        24        25        22     4      180.000000       31.911116         2    ;  uncertainty k = 0.074029
        23        25        22        24     4      180.000000       31.911116         2    ;  uncertainty k = 0.074029
        28        27        29        53     4      180.000000        0.357338         2    ;  uncertainty k = 0.461486
        28        29        53        27     4      180.000000        0.357338         2    ;  uncertainty k = 0.461486
        28        53        27        29     4      180.000000        0.357338         2    ;  uncertainty k = 0.461486
        29        28        30        54     4      180.000000        0.357338         2    ;  uncertainty k = 0.461485
        29        30        54        28     4      180.000000        0.357338         2    ;  uncertainty k = 0.461485
        29        54        28        30     4      180.000000        0.357338         2    ;  uncertainty k = 0.461485

[ pairs ]
;       ai        aj funct
         1         4     1
         1         6     1
         1        34     1
         2         5     1
         2         8     1
         2        35     1
         3         6     1
         3        26     1
         3        31     1
         3        32     1
         3        33     1
         4         7     1
         4         8     1
         4        27     1
         4        30     1
         5         9     1
         5        10     1
         5        28     1
         5        29     1
         5        34     1
         6        11     1
         6        17     1
         6        27     1
         6        30     1
         6        35     1
         7         9     1
         7        10     1
         7        26     1
         7        31     1
         7        32     1
         7        33     1
         7        34     1
         8        12     1
         8        16     1
         8        26     1
         8        36     1
         8        37     1
         8        44     1
         8        45     1
         9        11     1
         9        17     1
        10        13     1
        10        15     1
        10        38     1
        10        43     1
        11        14     1
        11        15     1
        11        39     1
        11        40     1
        11        43     1
        11        44     1
        11        45     1
        12        18     1
        12        41     1
        12        42     1
        12        44     1
        12        45     1
        13        17     1
        13        19     1
        13        25     1
        13        36     1
        13        37     1
        13        41     1
        13        42     1
        13        43     1
        14        17     1
        14        20     1
        14        23     1
        14        38     1
        14        43     1
        15        19     1
        15        25     1
        15        38     1
        15        39     1
        15        40     1
        15        44     1
        15        45     1
        16        18     1
        16        36     1
        16        37     1
        16        39     1
        16        40     1
        17        36     1
        17        37     1
        17        38     1
        17        41     1
        17        42     1
        18        21     1
        18        22     1
        18        24     1
        18        39     1
        18        40     1
        18        41     1
        18        42     1
        19        23     1
        19        46     1
        19        47     1
        19        48     1
        19        49     1
        20        24     1
        20        25     1
        21        23     1
        21        49     1
        22        46     1
        22        47     1
        22        48     1
        22        50     1
        22        51     1
        22        52     1
        24        49     1
        25        49     1
        25        50     1
        25        51     1
        25        52     1
        26        35     1
        26        53     1
        26        54     1
        27        54     1
        30        53     1
        34        35     1
        36        38     1
        37        38     1
        38        39     1
        38        40     1
        38        43     1
        41        43     1
        42        43     1
        43        44     1
        43        45     1
        53        54     1
