; ITP file created by ByteFF-joint-25, 2025-07-14 11:28:37.003267

[ atomtypes ]
;name           bonded.type        at.num        mass        charge   ptype           sigma         epsilon
 o0bf                                   8      0.0000       0.00000       A     3.04851e-01     6.12019e-01    ;  uncertainty sigma = 0.000026, epsilon = 0.001020
 c1bf                                   6      0.0000       0.00000       A     3.31486e-01     4.13134e-01    ;  uncertainty sigma = 0.000026, epsilon = 0.002146
 c2bf                                   6      0.0000       0.00000       A     3.31488e-01     4.12415e-01    ;  uncertainty sigma = 0.000034, epsilon = 0.001171
 c3bf                                   6      0.0000       0.00000       A     3.31513e-01     4.12834e-01    ;  uncertainty sigma = 0.000016, epsilon = 0.001292
 f4bf                                   9      0.0000       0.00000       A     3.03451e-01     3.47872e-01    ;  uncertainty sigma = 0.000029, epsilon = 0.000470
 c5bf                                   6      0.0000       0.00000       A     3.31522e-01     4.13335e-01    ;  uncertainty sigma = 0.000005, epsilon = 0.000661
 c6bf                                   6      0.0000       0.00000       A     3.31521e-01     4.13421e-01    ;  uncertainty sigma = 0.000006, epsilon = 0.000781
 c7bf                                   6      0.0000       0.00000       A     3.31510e-01     4.13240e-01    ;  uncertainty sigma = 0.000014, epsilon = 0.000923
 c8bf                                   6      0.0000       0.00000       A     3.31553e-01     4.13601e-01    ;  uncertainty sigma = 0.000013, epsilon = 0.001582
 n9bf                                   7      0.0000       0.00000       A     3.20569e-01     8.54049e-01    ;  uncertainty sigma = 0.000030, epsilon = 0.002792
 n10bf                                  7      0.0000       0.00000       A     3.38413e-01     3.93694e-01    ;  uncertainty sigma = 0.000010, epsilon = 0.000693
 c11bf                                  6      0.0000       0.00000       A     3.31537e-01     4.13587e-01    ;  uncertainty sigma = 0.000007, epsilon = 0.000835
 c12bf                                  6      0.0000       0.00000       A     3.31537e-01     4.13587e-01    ;  uncertainty sigma = 0.000007, epsilon = 0.000835
 n13bf                                  7      0.0000       0.00000       A     3.38413e-01     3.93694e-01    ;  uncertainty sigma = 0.000010, epsilon = 0.000693
 n14bf                                  7      0.0000       0.00000       A     3.18086e-01     6.84038e-01    ;  uncertainty sigma = 0.000014, epsilon = 0.001467
 c15bf                                  6      0.0000       0.00000       A     3.39784e-01     4.51219e-01    ;  uncertainty sigma = 0.000006, epsilon = 0.000696
 c16bf                                  6      0.0000       0.00000       A     3.39776e-01     4.51373e-01    ;  uncertainty sigma = 0.000009, epsilon = 0.000969
 c17bf                                  6      0.0000       0.00000       A     3.39774e-01     4.50953e-01    ;  uncertainty sigma = 0.000012, epsilon = 0.001229
 n18bf                                  7      0.0000       0.00000       A     3.18960e-01     8.98430e-01    ;  uncertainty sigma = 0.000053, epsilon = 0.003937
 c19bf                                  6      0.0000       0.00000       A     3.39774e-01     4.50953e-01    ;  uncertainty sigma = 0.000012, epsilon = 0.001229
 c20bf                                  6      0.0000       0.00000       A     3.39776e-01     4.51373e-01    ;  uncertainty sigma = 0.000009, epsilon = 0.000969
 c21bf                                  6      0.0000       0.00000       A     3.39784e-01     4.51219e-01    ;  uncertainty sigma = 0.000006, epsilon = 0.000696
 c22bf                                  6      0.0000       0.00000       A     3.31526e-01     4.13427e-01    ;  uncertainty sigma = 0.000014, epsilon = 0.000915
 n23bf                                  7      0.0000       0.00000       A     3.38420e-01     3.93937e-01    ;  uncertainty sigma = 0.000015, epsilon = 0.000771
 c24bf                                  6      0.0000       0.00000       A     3.31530e-01     4.13162e-01    ;  uncertainty sigma = 0.000021, epsilon = 0.001438
 c25bf                                  6      0.0000       0.00000       A     3.31609e-01     4.14347e-01    ;  uncertainty sigma = 0.000027, epsilon = 0.001068
 c26bf                                  6      0.0000       0.00000       A     3.31530e-01     4.13162e-01    ;  uncertainty sigma = 0.000021, epsilon = 0.001438
 n27bf                                  7      0.0000       0.00000       A     3.38420e-01     3.93937e-01    ;  uncertainty sigma = 0.000015, epsilon = 0.000771
 n28bf                                  7      0.0000       0.00000       A     3.36648e-01     3.58146e-01    ;  uncertainty sigma = 0.000047, epsilon = 0.002657
 o29bf                                  8      0.0000       0.00000       A     3.04815e-01     6.12765e-01    ;  uncertainty sigma = 0.000023, epsilon = 0.001429
 o30bf                                  8      0.0000       0.00000       A     3.04815e-01     6.12765e-01    ;  uncertainty sigma = 0.000023, epsilon = 0.001429
 h31bf                                  1      0.0000       0.00000       A     2.62565e-01     6.70682e-02    ;  uncertainty sigma = 0.000010, epsilon = 0.000430
 h32bf                                  1      0.0000       0.00000       A     2.62565e-01     6.69658e-02    ;  uncertainty sigma = 0.000011, epsilon = 0.000532
 h33bf                                  1      0.0000       0.00000       A     2.62555e-01     6.71502e-02    ;  uncertainty sigma = 0.000013, epsilon = 0.000465
 h34bf                                  1      0.0000       0.00000       A     2.53604e-01     6.70805e-02    ;  uncertainty sigma = 0.000028, epsilon = 0.000600
 h35bf                                  1      0.0000       0.00000       A     2.53604e-01     6.70805e-02    ;  uncertainty sigma = 0.000028, epsilon = 0.000600
 h36bf                                  1      0.0000       0.00000       A     2.42194e-01     8.66543e-02    ;  uncertainty sigma = 0.000021, epsilon = 0.000863
 h37bf                                  1      0.0000       0.00000       A     2.42194e-01     8.66543e-02    ;  uncertainty sigma = 0.000021, epsilon = 0.000863
 h38bf                                  1      0.0000       0.00000       A     2.59994e-01     8.68892e-02    ;  uncertainty sigma = 0.000026, epsilon = 0.000553
 h39bf                                  1      0.0000       0.00000       A     2.42199e-01     8.66323e-02    ;  uncertainty sigma = 0.000024, epsilon = 0.001250
 h40bf                                  1      0.0000       0.00000       A     2.42199e-01     8.66323e-02    ;  uncertainty sigma = 0.000024, epsilon = 0.001250
 h41bf                                  1      0.0000       0.00000       A     2.42199e-01     8.66324e-02    ;  uncertainty sigma = 0.000024, epsilon = 0.001250
 h42bf                                  1      0.0000       0.00000       A     2.42199e-01     8.66324e-02    ;  uncertainty sigma = 0.000024, epsilon = 0.001250
 h43bf                                  1      0.0000       0.00000       A     2.59994e-01     8.68893e-02    ;  uncertainty sigma = 0.000026, epsilon = 0.000553
 h44bf                                  1      0.0000       0.00000       A     2.42194e-01     8.66544e-02    ;  uncertainty sigma = 0.000021, epsilon = 0.000864
 h45bf                                  1      0.0000       0.00000       A     2.42194e-01     8.66544e-02    ;  uncertainty sigma = 0.000021, epsilon = 0.000864
 h46bf                                  1      0.0000       0.00000       A     2.53680e-01     6.73907e-02    ;  uncertainty sigma = 0.000073, epsilon = 0.001638
 h47bf                                  1      0.0000       0.00000       A     2.53680e-01     6.73907e-02    ;  uncertainty sigma = 0.000073, epsilon = 0.001638

[ moleculetype ]
;name             nrexcl
 MOL                   3

[ atoms ]
;       nr            type      resi   res      atom      cgnr      charge          mass ; qtot
         1            o0bf         1   UNL        o0         1    -0.58293       15.9990 ; qtot   -0.583
         2            c1bf         1   UNL        c1         2     0.70764       12.0110 ; qtot    0.125
         3            c2bf         1   UNL        c2         3    -0.15596       12.0110 ; qtot   -0.031
         4            c3bf         1   UNL        c3         4     0.16292       12.0110 ; qtot    0.132
         5            f4bf         1   UNL        f4         5    -0.13494       18.9980 ; qtot   -0.003
         6            c5bf         1   UNL        c5         6    -0.15817       12.0110 ; qtot   -0.161
         7            c6bf         1   UNL        c6         7    -0.08197       12.0110 ; qtot   -0.243
         8            c7bf         1   UNL        c7         8    -0.13048       12.0110 ; qtot   -0.374
         9            c8bf         1   UNL        c8         9     0.07222       12.0110 ; qtot   -0.302
        10            n9bf         1   UNL        n9        10     0.30201       14.0070 ; qtot    0.000
        11           n10bf         1   UNL       n10        11    -0.47243       14.0070 ; qtot   -0.472
        12           c11bf         1   UNL       c11        12     0.20275       12.0110 ; qtot   -0.269
        13           c12bf         1   UNL       c12        13     0.20275       12.0110 ; qtot   -0.067
        14           n13bf         1   UNL       n13        14    -0.47243       14.0070 ; qtot   -0.539
        15           n14bf         1   UNL       n14        15    -0.47239       14.0070 ; qtot   -1.011
        16           c15bf         1   UNL       c15        16     0.11057       12.0110 ; qtot   -0.901
        17           c16bf         1   UNL       c16        17    -0.09743       12.0110 ; qtot   -0.998
        18           c17bf         1   UNL       c17        18     0.23390       12.0110 ; qtot   -0.764
        19           n18bf         1   UNL       n18        19    -0.77622       14.0070 ; qtot   -1.541
        20           c19bf         1   UNL       c19        20     0.23390       12.0110 ; qtot   -1.307
        21           c20bf         1   UNL       c20        21    -0.09743       12.0110 ; qtot   -1.404
        22           c21bf         1   UNL       c21        22     0.11057       12.0110 ; qtot   -1.294
        23           c22bf         1   UNL       c22        23     0.93257       12.0110 ; qtot   -0.361
        24           n23bf         1   UNL       n23        24    -0.76779       14.0070 ; qtot   -1.129
        25           c24bf         1   UNL       c24        25     0.56177       12.0110 ; qtot   -0.567
        26           c25bf         1   UNL       c25        26    -0.47260       12.0110 ; qtot   -1.040
        27           c26bf         1   UNL       c26        27     0.56177       12.0110 ; qtot   -0.478
        28           n27bf         1   UNL       n27        28    -0.76779       14.0070 ; qtot   -1.246
        29           n28bf         1   UNL       n28        29     0.30790       14.0070 ; qtot   -0.938
        30           o29bf         1   UNL       o29        30    -0.19083       15.9990 ; qtot   -1.129
        31           o30bf         1   UNL       o30        31    -0.19083       15.9990 ; qtot   -1.319
        32           h31bf         1   UNL       h31        32     0.15846        1.0080 ; qtot   -1.161
        33           h32bf         1   UNL       h32        33     0.14574        1.0080 ; qtot   -1.015
        34           h33bf         1   UNL       h33        34     0.16350        1.0080 ; qtot   -0.852
        35           h34bf         1   UNL       h34        35     0.05496        1.0080 ; qtot   -0.797
        36           h35bf         1   UNL       h35        36     0.05496        1.0080 ; qtot   -0.742
        37           h36bf         1   UNL       h36        37     0.05981        1.0080 ; qtot   -0.682
        38           h37bf         1   UNL       h37        38     0.05981        1.0080 ; qtot   -0.622
        39           h38bf         1   UNL       h38        39     0.07237        1.0080 ; qtot   -0.550
        40           h39bf         1   UNL       h39        40     0.05891        1.0080 ; qtot   -0.491
        41           h40bf         1   UNL       h40        41     0.05891        1.0080 ; qtot   -0.432
        42           h41bf         1   UNL       h41        42     0.05891        1.0080 ; qtot   -0.373
        43           h42bf         1   UNL       h42        43     0.05891        1.0080 ; qtot   -0.314
        44           h43bf         1   UNL       h43        44     0.07237        1.0080 ; qtot   -0.242
        45           h44bf         1   UNL       h44        45     0.05981        1.0080 ; qtot   -0.182
        46           h45bf         1   UNL       h45        46     0.05981        1.0080 ; qtot   -0.122
        47           h46bf         1   UNL       h46        47     0.06106        1.0080 ; qtot   -0.061
        48           h47bf         1   UNL       h47        48     0.06108        1.0080 ; qtot    0.000

[ bonds ]
;       ai        aj funct               r               k
         1         2     1        0.123492   739384.814648    ;  uncertainty r = 0.000039, k = 10.151719
         2         3     1        0.151093   272101.628809    ;  uncertainty r = 0.000079, k = 31.154120
         2        15     1        0.135088   335722.995508    ;  uncertainty r = 0.000166, k = 15.024468
         3         4     1        0.139399   331888.675146    ;  uncertainty r = 0.000087, k = 16.801304
         3         9     1        0.139529   322378.195947    ;  uncertainty r = 0.000112, k = 6.618749
         4         5     1        0.135284   339697.718896    ;  uncertainty r = 0.000139, k = 6.883764
         4         6     1        0.138876   355374.082080    ;  uncertainty r = 0.000029, k = 4.848287
         6         7     1        0.139230   385818.044873    ;  uncertainty r = 0.000031, k = 3.156036
         6        32     1        0.108754   335743.808252    ;  uncertainty r = 0.000014, k = 1.461763
         7         8     1        0.139117   371572.781299    ;  uncertainty r = 0.000042, k = 2.923683
         7        33     1        0.108705   332118.662354    ;  uncertainty r = 0.000011, k = 1.593644
         8         9     1        0.139176   333973.831201    ;  uncertainty r = 0.000089, k = 2.958664
         8        34     1        0.108623   333131.336426    ;  uncertainty r = 0.000019, k = 1.837644
         9        10     1        0.140554   317671.476855    ;  uncertainty r = 0.000102, k = 8.472894
        10        11     1        0.134456   229486.015723    ;  uncertainty r = 0.000080, k = 10.859854
        10        14     1        0.134456   229486.015723    ;  uncertainty r = 0.000080, k = 10.859854
        11        12     1        0.132965   463550.937305    ;  uncertainty r = 0.000052, k = 7.730519
        12        13     1        0.141781   249584.027246    ;  uncertainty r = 0.000103, k = 15.332668
        12        35     1        0.108418   339910.136572    ;  uncertainty r = 0.000037, k = 1.124302
        13        14     1        0.132965   463550.937305    ;  uncertainty r = 0.000052, k = 7.730519
        13        36     1        0.108418   339910.136572    ;  uncertainty r = 0.000037, k = 1.124302
        15        16     1        0.146976   241154.406201    ;  uncertainty r = 0.000047, k = 15.575179
        15        22     1        0.146976   241154.406201    ;  uncertainty r = 0.000047, k = 15.575179
        16        17     1        0.153480   216617.049121    ;  uncertainty r = 0.000023, k = 7.412716
        16        37     1        0.109439   307434.875488    ;  uncertainty r = 0.000026, k = 1.171515
        16        38     1        0.109439   307434.875488    ;  uncertainty r = 0.000026, k = 1.171515
        17        18     1        0.153378   218045.467334    ;  uncertainty r = 0.000067, k = 7.088229
        17        21     1        0.154451   200722.535181    ;  uncertainty r = 0.000080, k = 20.796812
        17        39     1        0.109350   305021.261133    ;  uncertainty r = 0.000029, k = 3.829687
        18        19     1        0.146416   223567.739551    ;  uncertainty r = 0.000054, k = 13.706903
        18        40     1        0.109551   306518.450781    ;  uncertainty r = 0.000069, k = 2.534279
        18        41     1        0.109551   306518.450781    ;  uncertainty r = 0.000069, k = 2.534279
        19        20     1        0.146416   223567.739551    ;  uncertainty r = 0.000054, k = 13.706905
        19        23     1        0.135532   311870.850146    ;  uncertainty r = 0.000295, k = 21.385621
        20        21     1        0.153378   218045.441797    ;  uncertainty r = 0.000067, k = 7.088210
        20        42     1        0.109551   306518.450781    ;  uncertainty r = 0.000069, k = 2.534269
        20        43     1        0.109551   306518.450781    ;  uncertainty r = 0.000069, k = 2.534269
        21        22     1        0.153480   216617.049121    ;  uncertainty r = 0.000023, k = 7.412692
        21        44     1        0.109350   305021.261133    ;  uncertainty r = 0.000029, k = 3.829675
        22        45     1        0.109439   307434.875488    ;  uncertainty r = 0.000026, k = 1.171549
        22        46     1        0.109439   307434.875488    ;  uncertainty r = 0.000026, k = 1.171549
        23        24     1        0.136687   474341.898242    ;  uncertainty r = 0.000156, k = 10.313311
        23        28     1        0.136687   474341.898242    ;  uncertainty r = 0.000156, k = 10.313311
        24        25     1        0.132661   424158.643701    ;  uncertainty r = 0.000120, k = 8.432471
        25        26     1        0.140422   388861.685254    ;  uncertainty r = 0.000130, k = 16.311065
        25        47     1        0.108662   327993.474316    ;  uncertainty r = 0.000071, k = 3.913185
        26        27     1        0.140422   388861.685254    ;  uncertainty r = 0.000130, k = 16.311065
        26        29     1        0.144722   269945.862646    ;  uncertainty r = 0.000157, k = 32.457784
        27        28     1        0.132661   424158.643701    ;  uncertainty r = 0.000120, k = 8.432471
        27        48     1        0.108662   327993.474316    ;  uncertainty r = 0.000071, k = 3.913185
        29        30     1        0.124137   561006.726660    ;  uncertainty r = 0.000040, k = 3.678920
        29        31     1        0.124137   561006.726660    ;  uncertainty r = 0.000040, k = 3.678920

[ angles ]
;       ai        aj        ak funct           theta             cth
         1         2         3     1      123.973495      474.716668    ;  uncertainty theta = 0.004986, k = 0.295298
         1         2        15     1      124.922264      740.345444    ;  uncertainty theta = 0.002458, k = 0.115632
         2         3         4     1      122.644753      394.633059    ;  uncertainty theta = 0.009716, k = 0.281698
         2         3         9     1      121.727440      360.483304    ;  uncertainty theta = 0.007459, k = 0.258991
         2        15        16     1      117.974327      368.182711    ;  uncertainty theta = 0.003980, k = 0.157584
         2        15        22     1      117.974327      368.182711    ;  uncertainty theta = 0.003980, k = 0.157584
         3         2        15     1      112.159889      368.733068    ;  uncertainty theta = 0.002788, k = 0.265066
         3         4         5     1      116.293533      481.718082    ;  uncertainty theta = 0.003628, k = 0.151957
         3         4         6     1      125.257851      358.228505    ;  uncertainty theta = 0.006392, k = 0.161234
         3         9         8     1      126.248352      383.964293    ;  uncertainty theta = 0.008470, k = 0.143040
         3         9        10     1      115.625549      424.401253    ;  uncertainty theta = 0.005276, k = 0.425221
         4         3         9     1      120.519875      451.019061    ;  uncertainty theta = 0.010533, k = 0.145474
         4         6         7     1      116.906998      480.293175    ;  uncertainty theta = 0.004692, k = 0.077746
         4         6        32     1      120.257706      280.421849    ;  uncertainty theta = 0.001644, k = 0.051465
         5         4         6     1      119.307655      515.150978    ;  uncertainty theta = 0.004276, k = 0.124647
         6         7         8     1      119.580154      501.479974    ;  uncertainty theta = 0.001152, k = 0.050795
         6         7        33     1      120.085129      283.076655    ;  uncertainty theta = 0.000551, k = 0.029815
         7         6        32     1      122.091454      282.690757    ;  uncertainty theta = 0.001292, k = 0.025850
         7         8         9     1      119.295860      511.815576    ;  uncertainty theta = 0.002200, k = 0.078354
         7         8        34     1      121.511391      292.121324    ;  uncertainty theta = 0.001401, k = 0.054323
         8         7        33     1      119.901108      278.613949    ;  uncertainty theta = 0.000633, k = 0.016225
         8         9        10     1      118.568016      453.799094    ;  uncertainty theta = 0.002843, k = 0.118727
         9         8        34     1      118.140259      263.599055    ;  uncertainty theta = 0.002697, k = 0.141622
         9        10        11     1      116.169716      430.317914    ;  uncertainty theta = 0.006654, k = 0.182017
         9        10        14     1      116.169716      430.317914    ;  uncertainty theta = 0.006654, k = 0.182017
        10        11        12     1      105.336914      920.571295    ;  uncertainty theta = 0.004509, k = 0.170853
        10        14        13     1      105.336914      920.571295    ;  uncertainty theta = 0.004509, k = 0.170853
        11        10        14     1      113.935104     1160.946743    ;  uncertainty theta = 0.004391, k = 0.191360
        11        12        13     1      108.874611      885.375859    ;  uncertainty theta = 0.003815, k = 0.097431
        11        12        35     1      119.790878      274.219077    ;  uncertainty theta = 0.003825, k = 0.115835
        12        13        14     1      108.874611      885.375859    ;  uncertainty theta = 0.003815, k = 0.097431
        12        13        36     1      127.065453      242.460680    ;  uncertainty theta = 0.004115, k = 0.077998
        13        12        35     1      127.065453      242.460680    ;  uncertainty theta = 0.004115, k = 0.077998
        14        13        36     1      119.790878      274.219077    ;  uncertainty theta = 0.003825, k = 0.115835
        15        16        17     1      106.005104      800.142820    ;  uncertainty theta = 0.002837, k = 0.185312
        15        16        37     1      109.203384      457.892789    ;  uncertainty theta = 0.001598, k = 0.109127
        15        16        38     1      109.203384      457.892789    ;  uncertainty theta = 0.001598, k = 0.109127
        15        22        21     1      106.005104      800.142884    ;  uncertainty theta = 0.002837, k = 0.185312
        15        22        45     1      109.203384      457.892789    ;  uncertainty theta = 0.001598, k = 0.109127
        15        22        46     1      109.203384      457.892789    ;  uncertainty theta = 0.001598, k = 0.109127
        16        15        22     1      114.311745      540.101883    ;  uncertainty theta = 0.003229, k = 0.142692
        16        17        18     1      113.001526      495.885112    ;  uncertainty theta = 0.002967, k = 0.272650
        16        17        21     1      106.536072      683.535654    ;  uncertainty theta = 0.002057, k = 0.120116
        16        17        39     1      108.976547      381.109276    ;  uncertainty theta = 0.002391, k = 0.150517
        17        16        37     1      109.812805      398.157914    ;  uncertainty theta = 0.002056, k = 0.096133
        17        16        38     1      109.812805      398.157914    ;  uncertainty theta = 0.002056, k = 0.096133
        17        18        19     1      105.563187      835.429296    ;  uncertainty theta = 0.001938, k = 0.087985
        17        18        40     1      109.942749      401.681014    ;  uncertainty theta = 0.001744, k = 0.042629
        17        18        41     1      109.942749      401.681014    ;  uncertainty theta = 0.001744, k = 0.042629
        17        21        20     1      106.407143      696.228428    ;  uncertainty theta = 0.000820, k = 0.121960
        17        21        22     1      106.536072      683.535718    ;  uncertainty theta = 0.002057, k = 0.120117
        17        21        44     1      109.787766      408.249893    ;  uncertainty theta = 0.001833, k = 0.098421
        18        17        21     1      106.407143      696.228364    ;  uncertainty theta = 0.000820, k = 0.121960
        18        17        39     1      108.909218      387.529561    ;  uncertainty theta = 0.002428, k = 0.196424
        18        19        20     1      112.663040      488.850947    ;  uncertainty theta = 0.010003, k = 0.316189
        18        19        23     1      113.859825      429.389225    ;  uncertainty theta = 0.005816, k = 0.243812
        19        18        40     1      108.552917      456.916186    ;  uncertainty theta = 0.001154, k = 0.066118
        19        18        41     1      108.552917      456.916186    ;  uncertainty theta = 0.001154, k = 0.066118
        19        20        21     1      105.563187      835.429359    ;  uncertainty theta = 0.001938, k = 0.087985
        19        20        42     1      108.552917      456.916186    ;  uncertainty theta = 0.001154, k = 0.066118
        19        20        43     1      108.552917      456.916186    ;  uncertainty theta = 0.001154, k = 0.066118
        19        23        24     1      119.320663      547.451910    ;  uncertainty theta = 0.007358, k = 0.142323
        19        23        28     1      119.320663      547.451910    ;  uncertainty theta = 0.007358, k = 0.142323
        20        19        23     1      113.859825      429.389289    ;  uncertainty theta = 0.005816, k = 0.243812
        20        21        22     1      113.001511      495.885112    ;  uncertainty theta = 0.002967, k = 0.272650
        20        21        44     1      108.909218      387.529561    ;  uncertainty theta = 0.002428, k = 0.196423
        21        17        39     1      109.787766      408.249957    ;  uncertainty theta = 0.001833, k = 0.098421
        21        20        42     1      109.942749      401.681046    ;  uncertainty theta = 0.001744, k = 0.042629
        21        20        43     1      109.942749      401.681046    ;  uncertainty theta = 0.001744, k = 0.042629
        21        22        45     1      109.812820      398.157883    ;  uncertainty theta = 0.002056, k = 0.096133
        21        22        46     1      109.812820      398.157883    ;  uncertainty theta = 0.002056, k = 0.096133
        22        21        44     1      108.976562      381.109245    ;  uncertainty theta = 0.002391, k = 0.150517
        23        24        25     1      116.573288      405.058839    ;  uncertainty theta = 0.008416, k = 0.161376
        23        28        27     1      116.573288      405.058839    ;  uncertainty theta = 0.008416, k = 0.161376
        24        23        28     1      129.195679      704.020949    ;  uncertainty theta = 0.003904, k = 0.116330
        24        25        26     1      122.145157      674.558403    ;  uncertainty theta = 0.003164, k = 0.100012
        24        25        47     1      119.122475      318.864775    ;  uncertainty theta = 0.003938, k = 0.117430
        25        26        27     1      122.363991      384.314982    ;  uncertainty theta = 0.005648, k = 0.490315
        25        26        29     1      118.580467      418.166591    ;  uncertainty theta = 0.009034, k = 0.091037
        26        25        47     1      117.677002      245.311516    ;  uncertainty theta = 0.006897, k = 0.293785
        26        27        28     1      122.145157      674.558403    ;  uncertainty theta = 0.003164, k = 0.100012
        26        27        48     1      117.677002      245.311516    ;  uncertainty theta = 0.006897, k = 0.293785
        26        29        30     1      118.607986      507.759294    ;  uncertainty theta = 0.006930, k = 0.100759
        26        29        31     1      118.607986      507.759294    ;  uncertainty theta = 0.006930, k = 0.100759
        27        26        29     1      118.580467      418.166591    ;  uncertainty theta = 0.009034, k = 0.091037
        28        27        48     1      119.122475      318.864775    ;  uncertainty theta = 0.003938, k = 0.117430
        30        29        31     1      126.776161      935.133066    ;  uncertainty theta = 0.004579, k = 0.076181
        37        16        38     1      105.371445      309.387890    ;  uncertainty theta = 0.003860, k = 0.079571
        40        18        41     1      105.123001      312.324913    ;  uncertainty theta = 0.002382, k = 0.114503
        42        20        43     1      105.123001      312.324913    ;  uncertainty theta = 0.002382, k = 0.114504
        45        22        46     1      105.371445      309.387890    ;  uncertainty theta = 0.003860, k = 0.079571

[ dihedrals ] ; propers for gromacs 4.5 or higher, use funct 9
;       ai        aj        ak        al funct           phase               k        pn
         1         2         3         4     9        0.000000       -1.928786         1    ;  uncertainty k = 0.969846
         1         2         3         4     9      180.000000        5.038790         2    ;  uncertainty k = 0.443316
         1         2         3         4     9        0.000000        0.869540         3    ;  uncertainty k = 0.424299
         1         2         3         4     9      180.000000        0.459984         4    ;  uncertainty k = 0.229978
         1         2         3         9     9        0.000000       -3.997734         1    ;  uncertainty k = 0.906469
         1         2         3         9     9      180.000000        5.945517         2    ;  uncertainty k = 0.542760
         1         2         3         9     9        0.000000        0.551178         3    ;  uncertainty k = 0.549645
         1         2         3         9     9      180.000000        0.513462         4    ;  uncertainty k = 0.329406
         1         2        15        16     9        0.000000        6.357003         1    ;  uncertainty k = 0.547605
         1         2        15        16     9      180.000000       16.962736         2    ;  uncertainty k = 0.212954
         1         2        15        16     9        0.000000        0.267169         3    ;  uncertainty k = 0.202909
         1         2        15        16     9      180.000000       -1.190649         4    ;  uncertainty k = 0.124612
         1         2        15        22     9        0.000000        6.357004         1    ;  uncertainty k = 0.547605
         1         2        15        22     9      180.000000       16.962740         2    ;  uncertainty k = 0.212954
         1         2        15        22     9        0.000000        0.267168         3    ;  uncertainty k = 0.202909
         1         2        15        22     9      180.000000       -1.190649         4    ;  uncertainty k = 0.124612
         2         3         4         5     9        0.000000        0.086680         1    ;  uncertainty k = 0.322671
         2         3         4         5     9      180.000000       11.407952         2    ;  uncertainty k = 0.599565
         2         3         4         5     9        0.000000        1.385161         3    ;  uncertainty k = 0.187006
         2         3         4         5     9      180.000000        1.483635         4    ;  uncertainty k = 0.318096
         2         3         4         6     9        0.000000        0.114463         1    ;  uncertainty k = 0.659064
         2         3         4         6     9      180.000000        6.312818         2    ;  uncertainty k = 0.577136
         2         3         4         6     9        0.000000        1.356866         3    ;  uncertainty k = 0.282275
         2         3         4         6     9      180.000000        1.940646         4    ;  uncertainty k = 0.196893
         2         3         9         8     9        0.000000        0.266110         1    ;  uncertainty k = 0.262229
         2         3         9         8     9      180.000000        6.791976         2    ;  uncertainty k = 0.556220
         2         3         9         8     9        0.000000        1.305735         3    ;  uncertainty k = 0.332051
         2         3         9         8     9      180.000000        1.750370         4    ;  uncertainty k = 0.249436
         2         3         9        10     9        0.000000       -0.079087         1    ;  uncertainty k = 0.890587
         2         3         9        10     9      180.000000       10.037558         2    ;  uncertainty k = 0.622172
         2         3         9        10     9        0.000000        1.315712         3    ;  uncertainty k = 0.504291
         2         3         9        10     9      180.000000        1.286094         4    ;  uncertainty k = 0.361802
         2        15        16        17     9        0.000000       -0.209380         1    ;  uncertainty k = 0.966461
         2        15        16        17     9      180.000000       -0.541701         2    ;  uncertainty k = 0.373893
         2        15        16        17     9        0.000000        0.202800         3    ;  uncertainty k = 0.362930
         2        15        16        17     9      180.000000        0.702312         4    ;  uncertainty k = 0.132282
         2        15        16        37     9        0.000000        1.416106         1    ;  uncertainty k = 0.719805
         2        15        16        37     9      180.000000        0.065610         2    ;  uncertainty k = 0.093474
         2        15        16        37     9        0.000000        0.002232         3    ;  uncertainty k = 0.089343
         2        15        16        37     9      180.000000        0.277825         4    ;  uncertainty k = 0.071341
         2        15        16        38     9        0.000000        1.416106         1    ;  uncertainty k = 0.719805
         2        15        16        38     9      180.000000        0.065610         2    ;  uncertainty k = 0.093474
         2        15        16        38     9        0.000000        0.002232         3    ;  uncertainty k = 0.089343
         2        15        16        38     9      180.000000        0.277825         4    ;  uncertainty k = 0.071341
         2        15        22        21     9        0.000000       -0.209380         1    ;  uncertainty k = 0.966462
         2        15        22        21     9      180.000000       -0.541702         2    ;  uncertainty k = 0.373893
         2        15        22        21     9        0.000000        0.202800         3    ;  uncertainty k = 0.362930
         2        15        22        21     9      180.000000        0.702312         4    ;  uncertainty k = 0.132281
         2        15        22        45     9        0.000000        1.416106         1    ;  uncertainty k = 0.719806
         2        15        22        45     9      180.000000        0.065611         2    ;  uncertainty k = 0.093473
         2        15        22        45     9        0.000000        0.002232         3    ;  uncertainty k = 0.089343
         2        15        22        45     9      180.000000        0.277826         4    ;  uncertainty k = 0.071341
         2        15        22        46     9        0.000000        1.416106         1    ;  uncertainty k = 0.719806
         2        15        22        46     9      180.000000        0.065611         2    ;  uncertainty k = 0.093473
         2        15        22        46     9        0.000000        0.002232         3    ;  uncertainty k = 0.089343
         2        15        22        46     9      180.000000        0.277826         4    ;  uncertainty k = 0.071341
         3         2        15        16     9        0.000000        3.407847         1    ;  uncertainty k = 1.339110
         3         2        15        16     9      180.000000        8.996075         2    ;  uncertainty k = 0.412445
         3         2        15        16     9        0.000000        1.595044         3    ;  uncertainty k = 0.230310
         3         2        15        16     9      180.000000       -0.020268         4    ;  uncertainty k = 0.371981
         3         2        15        22     9        0.000000        3.407847         1    ;  uncertainty k = 1.339109
         3         2        15        22     9      180.000000        8.996074         2    ;  uncertainty k = 0.412445
         3         2        15        22     9        0.000000        1.595045         3    ;  uncertainty k = 0.230310
         3         2        15        22     9      180.000000       -0.020268         4    ;  uncertainty k = 0.371982
         3         4         6         7     9        0.000000        0.011528         1    ;  uncertainty k = 0.194929
         3         4         6         7     9      180.000000        8.787238         2    ;  uncertainty k = 0.361867
         3         4         6         7     9        0.000000        0.106727         3    ;  uncertainty k = 0.344316
         3         4         6         7     9      180.000000        1.205900         4    ;  uncertainty k = 0.276948
         3         4         6        32     9        0.000000       -0.168917         1    ;  uncertainty k = 0.390696
         3         4         6        32     9      180.000000        5.695522         2    ;  uncertainty k = 0.674905
         3         4         6        32     9        0.000000        1.129293         3    ;  uncertainty k = 0.356557
         3         4         6        32     9      180.000000        1.505167         4    ;  uncertainty k = 0.216214
         3         9         8         7     9        0.000000       -0.242507         1    ;  uncertainty k = 0.315737
         3         9         8         7     9      180.000000        9.681247         2    ;  uncertainty k = 0.496019
         3         9         8         7     9        0.000000        0.240132         3    ;  uncertainty k = 0.161669
         3         9         8         7     9      180.000000        1.271249         4    ;  uncertainty k = 0.330408
         3         9         8        34     9        0.000000       -0.007149         1    ;  uncertainty k = 0.345798
         3         9         8        34     9      180.000000        6.393420         2    ;  uncertainty k = 0.363299
         3         9         8        34     9        0.000000        1.235599         3    ;  uncertainty k = 0.195908
         3         9         8        34     9      180.000000        1.608512         4    ;  uncertainty k = 0.191460
         3         9        10        11     9        0.000000       -1.535070         1    ;  uncertainty k = 0.563418
         3         9        10        11     9      180.000000        4.499716         2    ;  uncertainty k = 0.535584
         3         9        10        11     9        0.000000        0.637687         3    ;  uncertainty k = 0.351002
         3         9        10        11     9      180.000000       -0.090463         4    ;  uncertainty k = 0.183189
         3         9        10        14     9        0.000000       -1.535070         1    ;  uncertainty k = 0.563418
         3         9        10        14     9      180.000000        4.499716         2    ;  uncertainty k = 0.535584
         3         9        10        14     9        0.000000        0.637687         3    ;  uncertainty k = 0.351002
         3         9        10        14     9      180.000000       -0.090463         4    ;  uncertainty k = 0.183189
         4         3         2        15     9        0.000000        1.851368         1    ;  uncertainty k = 1.259576
         4         3         2        15     9      180.000000        5.752965         2    ;  uncertainty k = 0.175507
         4         3         2        15     9        0.000000        0.162215         3    ;  uncertainty k = 0.318224
         4         3         2        15     9      180.000000        0.484794         4    ;  uncertainty k = 0.155872
         4         3         9         8     9        0.000000       -0.242349         1    ;  uncertainty k = 0.420151
         4         3         9         8     9      180.000000        6.983637         2    ;  uncertainty k = 0.869640
         4         3         9         8     9        0.000000        0.325218         3    ;  uncertainty k = 0.349952
         4         3         9         8     9      180.000000        1.307286         4    ;  uncertainty k = 0.335099
         4         3         9        10     9        0.000000        0.337461         1    ;  uncertainty k = 0.391006
         4         3         9        10     9      180.000000       10.376663         2    ;  uncertainty k = 0.372710
         4         3         9        10     9        0.000000        1.330822         3    ;  uncertainty k = 0.417773
         4         3         9        10     9      180.000000        1.431412         4    ;  uncertainty k = 0.199546
         4         6         7         8     9        0.000000       -0.033965         1    ;  uncertainty k = 0.110224
         4         6         7         8     9      180.000000       13.984023         2    ;  uncertainty k = 0.340845
         4         6         7         8     9        0.000000       -1.042558         3    ;  uncertainty k = 0.357763
         4         6         7         8     9      180.000000        0.802610         4    ;  uncertainty k = 0.247483
         4         6         7        33     9        0.000000       -0.104380         1    ;  uncertainty k = 0.141872
         4         6         7        33     9      180.000000        7.264412         2    ;  uncertainty k = 0.340044
         4         6         7        33     9        0.000000        1.287731         3    ;  uncertainty k = 0.202339
         4         6         7        33     9      180.000000        1.653500         4    ;  uncertainty k = 0.150967
         5         4         3         9     9        0.000000        0.033256         1    ;  uncertainty k = 0.304861
         5         4         3         9     9      180.000000       11.302608         2    ;  uncertainty k = 0.302059
         5         4         3         9     9        0.000000        1.679241         3    ;  uncertainty k = 0.164695
         5         4         3         9     9      180.000000        1.555514         4    ;  uncertainty k = 0.157671
         5         4         6         7     9        0.000000       -0.080231         1    ;  uncertainty k = 0.461474
         5         4         6         7     9      180.000000       13.203683         2    ;  uncertainty k = 0.340325
         5         4         6         7     9        0.000000        1.295972         3    ;  uncertainty k = 0.165135
         5         4         6         7     9      180.000000        1.523069         4    ;  uncertainty k = 0.233966
         5         4         6        32     9        0.000000       -0.128834         1    ;  uncertainty k = 0.456014
         5         4         6        32     9      180.000000        9.556550         2    ;  uncertainty k = 0.491147
         5         4         6        32     9        0.000000        0.767277         3    ;  uncertainty k = 0.273035
         5         4         6        32     9      180.000000        1.024642         4    ;  uncertainty k = 0.200947
         6         4         3         9     9        0.000000       -0.325540         1    ;  uncertainty k = 0.355386
         6         4         3         9     9      180.000000        6.052959         2    ;  uncertainty k = 0.864094
         6         4         3         9     9        0.000000        0.684667         3    ;  uncertainty k = 0.181780
         6         4         3         9     9      180.000000        1.492448         4    ;  uncertainty k = 0.353260
         6         7         8         9     9        0.000000       -0.096416         1    ;  uncertainty k = 0.180639
         6         7         8         9     9      180.000000       13.532950         2    ;  uncertainty k = 0.268821
         6         7         8         9     9        0.000000       -0.934273         3    ;  uncertainty k = 0.410646
         6         7         8         9     9      180.000000        0.824229         4    ;  uncertainty k = 0.239882
         6         7         8        34     9        0.000000        0.090919         1    ;  uncertainty k = 0.138952
         6         7         8        34     9      180.000000        7.803072         2    ;  uncertainty k = 0.340548
         6         7         8        34     9        0.000000        1.340932         3    ;  uncertainty k = 0.288750
         6         7         8        34     9      180.000000        1.895629         4    ;  uncertainty k = 0.190612
         7         8         9        10     9        0.000000        0.460448         1    ;  uncertainty k = 0.322985
         7         8         9        10     9      180.000000       11.387678         2    ;  uncertainty k = 0.346994
         7         8         9        10     9        0.000000        0.982541         3    ;  uncertainty k = 0.164036
         7         8         9        10     9      180.000000        1.624026         4    ;  uncertainty k = 0.138288
         8         7         6        32     9        0.000000        0.058866         1    ;  uncertainty k = 0.276257
         8         7         6        32     9      180.000000        7.716330         2    ;  uncertainty k = 0.326792
         8         7         6        32     9        0.000000        1.437490         3    ;  uncertainty k = 0.272563
         8         7         6        32     9      180.000000        1.759669         4    ;  uncertainty k = 0.126329
         8         9        10        11     9        0.000000        2.394478         1    ;  uncertainty k = 0.740965
         8         9        10        11     9      180.000000        4.329587         2    ;  uncertainty k = 0.263950
         8         9        10        11     9        0.000000        0.391714         3    ;  uncertainty k = 0.190596
         8         9        10        11     9      180.000000        0.083729         4    ;  uncertainty k = 0.150415
         8         9        10        14     9        0.000000        2.394478         1    ;  uncertainty k = 0.740965
         8         9        10        14     9      180.000000        4.329587         2    ;  uncertainty k = 0.263950
         8         9        10        14     9        0.000000        0.391714         3    ;  uncertainty k = 0.190596
         8         9        10        14     9      180.000000        0.083729         4    ;  uncertainty k = 0.150415
         9         3         2        15     9        0.000000        3.709918         1    ;  uncertainty k = 1.132208
         9         3         2        15     9      180.000000        5.907216         2    ;  uncertainty k = 0.295099
         9         3         2        15     9        0.000000        0.162296         3    ;  uncertainty k = 0.106377
         9         3         2        15     9      180.000000        0.490410         4    ;  uncertainty k = 0.140372
         9         8         7        33     9        0.000000       -0.010721         1    ;  uncertainty k = 0.237400
         9         8         7        33     9      180.000000        7.958978         2    ;  uncertainty k = 0.442748
         9         8         7        33     9        0.000000        1.209100         3    ;  uncertainty k = 0.164443
         9         8         7        33     9      180.000000        1.723739         4    ;  uncertainty k = 0.144208
         9        10        11        12     9        0.000000        0.797559         1    ;  uncertainty k = 2.309877
         9        10        11        12     9      180.000000       14.114445         2    ;  uncertainty k = 0.418682
         9        10        11        12     9        0.000000        1.402880         3    ;  uncertainty k = 0.442527
         9        10        11        12     9      180.000000        0.112614         4    ;  uncertainty k = 0.206946
         9        10        14        13     9        0.000000        0.797559         1    ;  uncertainty k = 2.309877
         9        10        14        13     9      180.000000       14.114445         2    ;  uncertainty k = 0.418682
         9        10        14        13     9        0.000000        1.402880         3    ;  uncertainty k = 0.442527
         9        10        14        13     9      180.000000        0.112614         4    ;  uncertainty k = 0.206946
        10         9         8        34     9        0.000000        0.135212         1    ;  uncertainty k = 0.398576
        10         9         8        34     9      180.000000        8.519178         2    ;  uncertainty k = 0.273745
        10         9         8        34     9        0.000000        0.803951         3    ;  uncertainty k = 0.224880
        10         9         8        34     9      180.000000        1.348904         4    ;  uncertainty k = 0.152778
        10        11        12        13     9        0.000000        0.015897         1    ;  uncertainty k = 0.518605
        10        11        12        13     9      180.000000       24.370145         2    ;  uncertainty k = 0.366584
        10        11        12        13     9        0.000000       -9.715999         3    ;  uncertainty k = 1.915614
        10        11        12        13     9      180.000000        2.426696         4    ;  uncertainty k = 0.655510
        10        11        12        35     9        0.000000        0.232293         1    ;  uncertainty k = 0.741580
        10        11        12        35     9      180.000000       22.028688         2    ;  uncertainty k = 0.487024
        10        11        12        35     9        0.000000        1.455894         3    ;  uncertainty k = 0.397707
        10        11        12        35     9      180.000000        1.220382         4    ;  uncertainty k = 0.604170
        10        14        13        12     9        0.000000        0.015897         1    ;  uncertainty k = 0.518605
        10        14        13        12     9      180.000000       24.370145         2    ;  uncertainty k = 0.366584
        10        14        13        12     9        0.000000       -9.715999         3    ;  uncertainty k = 1.915614
        10        14        13        12     9      180.000000        2.426696         4    ;  uncertainty k = 0.655510
        10        14        13        36     9        0.000000        0.232293         1    ;  uncertainty k = 0.741580
        10        14        13        36     9      180.000000       22.028688         2    ;  uncertainty k = 0.487024
        10        14        13        36     9        0.000000        1.455894         3    ;  uncertainty k = 0.397707
        10        14        13        36     9      180.000000        1.220382         4    ;  uncertainty k = 0.604170
        11        10        14        13     9        0.000000       -0.822390         1    ;  uncertainty k = 0.769864
        11        10        14        13     9      180.000000       22.038727         2    ;  uncertainty k = 0.271383
        11        10        14        13     9        0.000000       -8.305140         3    ;  uncertainty k = 1.269834
        11        10        14        13     9      180.000000        1.298759         4    ;  uncertainty k = 0.596552
        11        12        13        14     9        0.000000       -0.480158         1    ;  uncertainty k = 0.926462
        11        12        13        14     9      180.000000       16.735216         2    ;  uncertainty k = 1.309662
        11        12        13        14     9        0.000000      -12.155219         3    ;  uncertainty k = 1.939945
        11        12        13        14     9      180.000000        1.991293         4    ;  uncertainty k = 0.750423
        11        12        13        36     9        0.000000        0.154897         1    ;  uncertainty k = 0.970262
        11        12        13        36     9      180.000000       11.842300         2    ;  uncertainty k = 0.614370
        11        12        13        36     9        0.000000        0.922189         3    ;  uncertainty k = 0.757887
        11        12        13        36     9      180.000000        0.630945         4    ;  uncertainty k = 0.172002
        12        11        10        14     9        0.000000       -0.822390         1    ;  uncertainty k = 0.769864
        12        11        10        14     9      180.000000       22.038727         2    ;  uncertainty k = 0.271383
        12        11        10        14     9        0.000000       -8.305140         3    ;  uncertainty k = 1.269834
        12        11        10        14     9      180.000000        1.298759         4    ;  uncertainty k = 0.596552
        14        13        12        35     9        0.000000        0.154897         1    ;  uncertainty k = 0.970262
        14        13        12        35     9      180.000000       11.842300         2    ;  uncertainty k = 0.614370
        14        13        12        35     9        0.000000        0.922189         3    ;  uncertainty k = 0.757887
        14        13        12        35     9      180.000000        0.630945         4    ;  uncertainty k = 0.172002
        15        16        17        18     9        0.000000       -2.607418         1    ;  uncertainty k = 0.995424
        15        16        17        18     9      180.000000        0.022076         2    ;  uncertainty k = 0.727033
        15        16        17        18     9        0.000000        1.612969         3    ;  uncertainty k = 0.235290
        15        16        17        18     9      180.000000       -0.185713         4    ;  uncertainty k = 0.112586
        15        16        17        21     9        0.000000       -0.736761         1    ;  uncertainty k = 0.633514
        15        16        17        21     9      180.000000        6.025411         2    ;  uncertainty k = 1.000862
        15        16        17        21     9        0.000000        0.435196         3    ;  uncertainty k = 0.297546
        15        16        17        21     9      180.000000       -1.170162         4    ;  uncertainty k = 0.204856
        15        16        17        39     9        0.000000        0.123162         1    ;  uncertainty k = 0.632772
        15        16        17        39     9      180.000000        0.836162         2    ;  uncertainty k = 0.434790
        15        16        17        39     9        0.000000        1.098159         3    ;  uncertainty k = 0.161086
        15        16        17        39     9      180.000000       -0.066245         4    ;  uncertainty k = 0.104331
        15        22        21        17     9        0.000000       -0.736762         1    ;  uncertainty k = 0.633513
        15        22        21        17     9      180.000000        6.025412         2    ;  uncertainty k = 1.000861
        15        22        21        17     9        0.000000        0.435196         3    ;  uncertainty k = 0.297545
        15        22        21        17     9      180.000000       -1.170163         4    ;  uncertainty k = 0.204855
        15        22        21        20     9        0.000000       -2.607419         1    ;  uncertainty k = 0.995427
        15        22        21        20     9      180.000000        0.022075         2    ;  uncertainty k = 0.727033
        15        22        21        20     9        0.000000        1.612969         3    ;  uncertainty k = 0.235290
        15        22        21        20     9      180.000000       -0.185713         4    ;  uncertainty k = 0.112586
        15        22        21        44     9        0.000000        0.123161         1    ;  uncertainty k = 0.632772
        15        22        21        44     9      180.000000        0.836163         2    ;  uncertainty k = 0.434789
        15        22        21        44     9        0.000000        1.098159         3    ;  uncertainty k = 0.161086
        15        22        21        44     9      180.000000       -0.066245         4    ;  uncertainty k = 0.104332
        16        15        22        21     9        0.000000       -0.578347         1    ;  uncertainty k = 0.919747
        16        15        22        21     9      180.000000        0.242792         2    ;  uncertainty k = 0.701024
        16        15        22        21     9        0.000000        0.797027         3    ;  uncertainty k = 0.218418
        16        15        22        21     9      180.000000        0.154107         4    ;  uncertainty k = 0.246781
        16        15        22        45     9        0.000000       -1.810376         1    ;  uncertainty k = 0.576097
        16        15        22        45     9      180.000000        1.086383         2    ;  uncertainty k = 0.426528
        16        15        22        45     9        0.000000        1.250141         3    ;  uncertainty k = 0.136647
        16        15        22        45     9      180.000000        0.301768         4    ;  uncertainty k = 0.117465
        16        15        22        46     9        0.000000       -1.810376         1    ;  uncertainty k = 0.576097
        16        15        22        46     9      180.000000        1.086383         2    ;  uncertainty k = 0.426528
        16        15        22        46     9        0.000000        1.250141         3    ;  uncertainty k = 0.136647
        16        15        22        46     9      180.000000        0.301768         4    ;  uncertainty k = 0.117465
        16        17        18        19     9        0.000000       -1.976245         1    ;  uncertainty k = 1.145119
        16        17        18        19     9      180.000000        0.974309         2    ;  uncertainty k = 0.883962
        16        17        18        19     9        0.000000        1.660747         3    ;  uncertainty k = 0.393137
        16        17        18        19     9      180.000000       -0.165970         4    ;  uncertainty k = 0.237033
        16        17        18        40     9        0.000000       -0.670734         1    ;  uncertainty k = 0.233995
        16        17        18        40     9      180.000000       -0.386310         2    ;  uncertainty k = 0.258590
        16        17        18        40     9        0.000000        0.557638         3    ;  uncertainty k = 0.179621
        16        17        18        40     9      180.000000       -0.081826         4    ;  uncertainty k = 0.095492
        16        17        18        41     9        0.000000       -0.670734         1    ;  uncertainty k = 0.233995
        16        17        18        41     9      180.000000       -0.386310         2    ;  uncertainty k = 0.258590
        16        17        18        41     9        0.000000        0.557638         3    ;  uncertainty k = 0.179621
        16        17        18        41     9      180.000000       -0.081826         4    ;  uncertainty k = 0.095492
        16        17        21        20     9        0.000000       -3.847149         1    ;  uncertainty k = 0.842082
        16        17        21        20     9      180.000000        0.994504         2    ;  uncertainty k = 1.017626
        16        17        21        20     9        0.000000        1.189093         3    ;  uncertainty k = 0.581589
        16        17        21        20     9      180.000000       -0.416044         4    ;  uncertainty k = 0.334399
        16        17        21        22     9        0.000000       -3.717089         1    ;  uncertainty k = 0.646012
        16        17        21        22     9      180.000000        0.952706         2    ;  uncertainty k = 0.984303
        16        17        21        22     9        0.000000        1.178983         3    ;  uncertainty k = 0.499658
        16        17        21        22     9      180.000000       -0.410261         4    ;  uncertainty k = 0.338854
        16        17        21        44     9        0.000000       -1.291634         1    ;  uncertainty k = 0.560344
        16        17        21        44     9      180.000000        0.594320         2    ;  uncertainty k = 0.368267
        16        17        21        44     9        0.000000        1.030260         3    ;  uncertainty k = 0.246250
        16        17        21        44     9      180.000000        0.081404         4    ;  uncertainty k = 0.059900
        17        16        15        22     9        0.000000       -0.578346         1    ;  uncertainty k = 0.919746
        17        16        15        22     9      180.000000        0.242791         2    ;  uncertainty k = 0.701024
        17        16        15        22     9        0.000000        0.797027         3    ;  uncertainty k = 0.218418
        17        16        15        22     9      180.000000        0.154107         4    ;  uncertainty k = 0.246781
        17        18        19        20     9        0.000000        0.447921         1    ;  uncertainty k = 1.102951
        17        18        19        20     9      180.000000        1.408028         2    ;  uncertainty k = 1.205864
        17        18        19        20     9        0.000000        0.847922         3    ;  uncertainty k = 0.314674
        17        18        19        20     9      180.000000        0.016434         4    ;  uncertainty k = 0.166245
        17        18        19        23     9        0.000000       -5.205031         1    ;  uncertainty k = 1.487217
        17        18        19        23     9      180.000000        0.645735         2    ;  uncertainty k = 0.537491
        17        18        19        23     9        0.000000        0.709768         3    ;  uncertainty k = 0.226577
        17        18        19        23     9      180.000000        0.318264         4    ;  uncertainty k = 0.104798
        17        21        20        19     9        0.000000       -0.254571         1    ;  uncertainty k = 1.693688
        17        21        20        19     9      180.000000        6.153995         2    ;  uncertainty k = 1.119496
        17        21        20        19     9        0.000000        0.668484         3    ;  uncertainty k = 0.342396
        17        21        20        19     9      180.000000       -1.480663         4    ;  uncertainty k = 0.510869
        17        21        20        42     9        0.000000        0.646623         1    ;  uncertainty k = 0.517783
        17        21        20        42     9      180.000000       -1.099688         2    ;  uncertainty k = 0.743823
        17        21        20        42     9        0.000000       -0.334778         3    ;  uncertainty k = 0.213643
        17        21        20        42     9      180.000000       -0.018734         4    ;  uncertainty k = 0.206091
        17        21        20        43     9        0.000000        0.646623         1    ;  uncertainty k = 0.517783
        17        21        20        43     9      180.000000       -1.099688         2    ;  uncertainty k = 0.743823
        17        21        20        43     9        0.000000       -0.334778         3    ;  uncertainty k = 0.213643
        17        21        20        43     9      180.000000       -0.018734         4    ;  uncertainty k = 0.206091
        17        21        22        45     9        0.000000        0.480411         1    ;  uncertainty k = 0.492792
        17        21        22        45     9      180.000000       -1.104495         2    ;  uncertainty k = 0.672328
        17        21        22        45     9        0.000000       -0.270072         3    ;  uncertainty k = 0.170670
        17        21        22        45     9      180.000000       -0.013161         4    ;  uncertainty k = 0.174221
        17        21        22        46     9        0.000000        0.480411         1    ;  uncertainty k = 0.492792
        17        21        22        46     9      180.000000       -1.104495         2    ;  uncertainty k = 0.672328
        17        21        22        46     9        0.000000       -0.270072         3    ;  uncertainty k = 0.170670
        17        21        22        46     9      180.000000       -0.013161         4    ;  uncertainty k = 0.174221
        18        17        16        37     9        0.000000       -0.498817         1    ;  uncertainty k = 0.107247
        18        17        16        37     9      180.000000       -0.409706         2    ;  uncertainty k = 0.197166
        18        17        16        37     9        0.000000        0.564544         3    ;  uncertainty k = 0.186998
        18        17        16        37     9      180.000000       -0.072177         4    ;  uncertainty k = 0.062323
        18        17        16        38     9        0.000000       -0.498817         1    ;  uncertainty k = 0.107247
        18        17        16        38     9      180.000000       -0.409706         2    ;  uncertainty k = 0.197166
        18        17        16        38     9        0.000000        0.564544         3    ;  uncertainty k = 0.186998
        18        17        16        38     9      180.000000       -0.072177         4    ;  uncertainty k = 0.062323
        18        17        21        20     9        0.000000       -3.896618         1    ;  uncertainty k = 1.087276
        18        17        21        20     9      180.000000        1.035026         2    ;  uncertainty k = 1.026287
        18        17        21        20     9        0.000000        1.207838         3    ;  uncertainty k = 0.671623
        18        17        21        20     9      180.000000       -0.436931         4    ;  uncertainty k = 0.343365
        18        17        21        22     9        0.000000       -3.847150         1    ;  uncertainty k = 0.842081
        18        17        21        22     9      180.000000        0.994504         2    ;  uncertainty k = 1.017625
        18        17        21        22     9        0.000000        1.189094         3    ;  uncertainty k = 0.581588
        18        17        21        22     9      180.000000       -0.416044         4    ;  uncertainty k = 0.334398
        18        17        21        44     9        0.000000       -1.223112         1    ;  uncertainty k = 0.611378
        18        17        21        44     9      180.000000        0.489633         2    ;  uncertainty k = 0.414978
        18        17        21        44     9        0.000000        0.997353         3    ;  uncertainty k = 0.241670
        18        17        21        44     9      180.000000        0.066778         4    ;  uncertainty k = 0.087125
        18        19        20        21     9        0.000000        0.447921         1    ;  uncertainty k = 1.102950
        18        19        20        21     9      180.000000        1.408027         2    ;  uncertainty k = 1.205863
        18        19        20        21     9        0.000000        0.847922         3    ;  uncertainty k = 0.314674
        18        19        20        21     9      180.000000        0.016434         4    ;  uncertainty k = 0.166245
        18        19        20        42     9        0.000000       -2.105419         1    ;  uncertainty k = 0.728529
        18        19        20        42     9      180.000000        1.276043         2    ;  uncertainty k = 0.378668
        18        19        20        42     9        0.000000        1.146425         3    ;  uncertainty k = 0.085375
        18        19        20        42     9      180.000000        0.249744         4    ;  uncertainty k = 0.125232
        18        19        20        43     9        0.000000       -2.105419         1    ;  uncertainty k = 0.728529
        18        19        20        43     9      180.000000        1.276043         2    ;  uncertainty k = 0.378668
        18        19        20        43     9        0.000000        1.146425         3    ;  uncertainty k = 0.085375
        18        19        20        43     9      180.000000        0.249744         4    ;  uncertainty k = 0.125232
        18        19        23        24     9        0.000000        4.478508         1    ;  uncertainty k = 0.571454
        18        19        23        24     9      180.000000       14.181566         2    ;  uncertainty k = 0.154939
        18        19        23        24     9        0.000000        0.247936         3    ;  uncertainty k = 0.176143
        18        19        23        24     9      180.000000       -0.410267         4    ;  uncertainty k = 0.136573
        18        19        23        28     9        0.000000        4.478508         1    ;  uncertainty k = 0.571454
        18        19        23        28     9      180.000000       14.181566         2    ;  uncertainty k = 0.154939
        18        19        23        28     9        0.000000        0.247936         3    ;  uncertainty k = 0.176143
        18        19        23        28     9      180.000000       -0.410267         4    ;  uncertainty k = 0.136573
        19        18        17        21     9        0.000000       -0.254570         1    ;  uncertainty k = 1.693686
        19        18        17        21     9      180.000000        6.153995         2    ;  uncertainty k = 1.119500
        19        18        17        21     9        0.000000        0.668484         3    ;  uncertainty k = 0.342395
        19        18        17        21     9      180.000000       -1.480663         4    ;  uncertainty k = 0.510870
        19        18        17        39     9        0.000000        0.579456         1    ;  uncertainty k = 0.848754
        19        18        17        39     9      180.000000        1.320021         2    ;  uncertainty k = 0.506519
        19        18        17        39     9        0.000000        1.168811         3    ;  uncertainty k = 0.210380
        19        18        17        39     9      180.000000       -0.077708         4    ;  uncertainty k = 0.178935
        19        20        21        22     9        0.000000       -1.976246         1    ;  uncertainty k = 1.145115
        19        20        21        22     9      180.000000        0.974309         2    ;  uncertainty k = 0.883961
        19        20        21        22     9        0.000000        1.660746         3    ;  uncertainty k = 0.393137
        19        20        21        22     9      180.000000       -0.165970         4    ;  uncertainty k = 0.237033
        19        20        21        44     9        0.000000        0.579455         1    ;  uncertainty k = 0.848754
        19        20        21        44     9      180.000000        1.320021         2    ;  uncertainty k = 0.506521
        19        20        21        44     9        0.000000        1.168811         3    ;  uncertainty k = 0.210380
        19        20        21        44     9      180.000000       -0.077708         4    ;  uncertainty k = 0.178936
        19        23        24        25     9        0.000000        1.437168         1    ;  uncertainty k = 2.056692
        19        23        24        25     9      180.000000        8.317311         2    ;  uncertainty k = 0.286546
        19        23        24        25     9        0.000000        1.773666         3    ;  uncertainty k = 0.434571
        19        23        24        25     9      180.000000        0.728451         4    ;  uncertainty k = 0.160605
        19        23        28        27     9        0.000000        1.437168         1    ;  uncertainty k = 2.056692
        19        23        28        27     9      180.000000        8.317311         2    ;  uncertainty k = 0.286546
        19        23        28        27     9        0.000000        1.773666         3    ;  uncertainty k = 0.434571
        19        23        28        27     9      180.000000        0.728451         4    ;  uncertainty k = 0.160605
        20        19        18        40     9        0.000000       -2.105417         1    ;  uncertainty k = 0.728529
        20        19        18        40     9      180.000000        1.276043         2    ;  uncertainty k = 0.378668
        20        19        18        40     9        0.000000        1.146425         3    ;  uncertainty k = 0.085375
        20        19        18        40     9      180.000000        0.249744         4    ;  uncertainty k = 0.125232
        20        19        18        41     9        0.000000       -2.105417         1    ;  uncertainty k = 0.728529
        20        19        18        41     9      180.000000        1.276043         2    ;  uncertainty k = 0.378668
        20        19        18        41     9        0.000000        1.146425         3    ;  uncertainty k = 0.085375
        20        19        18        41     9      180.000000        0.249744         4    ;  uncertainty k = 0.125232
        20        19        23        24     9        0.000000        4.478507         1    ;  uncertainty k = 0.571453
        20        19        23        24     9      180.000000       14.181565         2    ;  uncertainty k = 0.154940
        20        19        23        24     9        0.000000        0.247936         3    ;  uncertainty k = 0.176143
        20        19        23        24     9      180.000000       -0.410267         4    ;  uncertainty k = 0.136573
        20        19        23        28     9        0.000000        4.478507         1    ;  uncertainty k = 0.571453
        20        19        23        28     9      180.000000       14.181565         2    ;  uncertainty k = 0.154940
        20        19        23        28     9        0.000000        0.247936         3    ;  uncertainty k = 0.176143
        20        19        23        28     9      180.000000       -0.410267         4    ;  uncertainty k = 0.136573
        20        21        17        39     9        0.000000       -1.223111         1    ;  uncertainty k = 0.611378
        20        21        17        39     9      180.000000        0.489636         2    ;  uncertainty k = 0.414976
        20        21        17        39     9        0.000000        0.997354         3    ;  uncertainty k = 0.241670
        20        21        17        39     9      180.000000        0.066778         4    ;  uncertainty k = 0.087125
        20        21        22        45     9        0.000000       -0.498818         1    ;  uncertainty k = 0.107246
        20        21        22        45     9      180.000000       -0.409706         2    ;  uncertainty k = 0.197167
        20        21        22        45     9        0.000000        0.564544         3    ;  uncertainty k = 0.186998
        20        21        22        45     9      180.000000       -0.072177         4    ;  uncertainty k = 0.062323
        20        21        22        46     9        0.000000       -0.498818         1    ;  uncertainty k = 0.107246
        20        21        22        46     9      180.000000       -0.409706         2    ;  uncertainty k = 0.197167
        20        21        22        46     9        0.000000        0.564544         3    ;  uncertainty k = 0.186998
        20        21        22        46     9      180.000000       -0.072177         4    ;  uncertainty k = 0.062323
        21        17        16        37     9        0.000000        0.480413         1    ;  uncertainty k = 0.492792
        21        17        16        37     9      180.000000       -1.104495         2    ;  uncertainty k = 0.672328
        21        17        16        37     9        0.000000       -0.270073         3    ;  uncertainty k = 0.170671
        21        17        16        37     9      180.000000       -0.013161         4    ;  uncertainty k = 0.174221
        21        17        16        38     9        0.000000        0.480413         1    ;  uncertainty k = 0.492792
        21        17        16        38     9      180.000000       -1.104495         2    ;  uncertainty k = 0.672328
        21        17        16        38     9        0.000000       -0.270073         3    ;  uncertainty k = 0.170671
        21        17        16        38     9      180.000000       -0.013161         4    ;  uncertainty k = 0.174221
        21        17        18        40     9        0.000000        0.646623         1    ;  uncertainty k = 0.517782
        21        17        18        40     9      180.000000       -1.099688         2    ;  uncertainty k = 0.743824
        21        17        18        40     9        0.000000       -0.334778         3    ;  uncertainty k = 0.213644
        21        17        18        40     9      180.000000       -0.018734         4    ;  uncertainty k = 0.206091
        21        17        18        41     9        0.000000        0.646623         1    ;  uncertainty k = 0.517782
        21        17        18        41     9      180.000000       -1.099688         2    ;  uncertainty k = 0.743824
        21        17        18        41     9        0.000000       -0.334778         3    ;  uncertainty k = 0.213644
        21        17        18        41     9      180.000000       -0.018734         4    ;  uncertainty k = 0.206091
        21        20        19        23     9        0.000000       -5.205031         1    ;  uncertainty k = 1.487218
        21        20        19        23     9      180.000000        0.645735         2    ;  uncertainty k = 0.537491
        21        20        19        23     9        0.000000        0.709768         3    ;  uncertainty k = 0.226577
        21        20        19        23     9      180.000000        0.318264         4    ;  uncertainty k = 0.104798
        22        15        16        37     9        0.000000       -1.810375         1    ;  uncertainty k = 0.576096
        22        15        16        37     9      180.000000        1.086381         2    ;  uncertainty k = 0.426526
        22        15        16        37     9        0.000000        1.250141         3    ;  uncertainty k = 0.136647
        22        15        16        37     9      180.000000        0.301768         4    ;  uncertainty k = 0.117464
        22        15        16        38     9        0.000000       -1.810375         1    ;  uncertainty k = 0.576096
        22        15        16        38     9      180.000000        1.086381         2    ;  uncertainty k = 0.426526
        22        15        16        38     9        0.000000        1.250141         3    ;  uncertainty k = 0.136647
        22        15        16        38     9      180.000000        0.301768         4    ;  uncertainty k = 0.117464
        22        21        17        39     9        0.000000       -1.291635         1    ;  uncertainty k = 0.560344
        22        21        17        39     9      180.000000        0.594320         2    ;  uncertainty k = 0.368267
        22        21        17        39     9        0.000000        1.030260         3    ;  uncertainty k = 0.246250
        22        21        17        39     9      180.000000        0.081404         4    ;  uncertainty k = 0.059900
        22        21        20        42     9        0.000000       -0.670734         1    ;  uncertainty k = 0.233996
        22        21        20        42     9      180.000000       -0.386308         2    ;  uncertainty k = 0.258591
        22        21        20        42     9        0.000000        0.557638         3    ;  uncertainty k = 0.179621
        22        21        20        42     9      180.000000       -0.081826         4    ;  uncertainty k = 0.095492
        22        21        20        43     9        0.000000       -0.670734         1    ;  uncertainty k = 0.233996
        22        21        20        43     9      180.000000       -0.386308         2    ;  uncertainty k = 0.258591
        22        21        20        43     9        0.000000        0.557638         3    ;  uncertainty k = 0.179621
        22        21        20        43     9      180.000000       -0.081826         4    ;  uncertainty k = 0.095492
        23        19        18        40     9        0.000000       -0.322757         1    ;  uncertainty k = 0.700054
        23        19        18        40     9      180.000000        0.946704         2    ;  uncertainty k = 0.448336
        23        19        18        40     9        0.000000        0.518671         3    ;  uncertainty k = 0.108843
        23        19        18        40     9      180.000000        0.369447         4    ;  uncertainty k = 0.089935
        23        19        18        41     9        0.000000       -0.322757         1    ;  uncertainty k = 0.700054
        23        19        18        41     9      180.000000        0.946704         2    ;  uncertainty k = 0.448336
        23        19        18        41     9        0.000000        0.518671         3    ;  uncertainty k = 0.108843
        23        19        18        41     9      180.000000        0.369447         4    ;  uncertainty k = 0.089935
        23        19        20        42     9        0.000000       -0.322759         1    ;  uncertainty k = 0.700056
        23        19        20        42     9      180.000000        0.946703         2    ;  uncertainty k = 0.448338
        23        19        20        42     9        0.000000        0.518671         3    ;  uncertainty k = 0.108843
        23        19        20        42     9      180.000000        0.369447         4    ;  uncertainty k = 0.089935
        23        19        20        43     9        0.000000       -0.322759         1    ;  uncertainty k = 0.700056
        23        19        20        43     9      180.000000        0.946703         2    ;  uncertainty k = 0.448338
        23        19        20        43     9        0.000000        0.518671         3    ;  uncertainty k = 0.108843
        23        19        20        43     9      180.000000        0.369447         4    ;  uncertainty k = 0.089935
        23        24        25        26     9        0.000000       -1.044743         1    ;  uncertainty k = 1.148581
        23        24        25        26     9      180.000000       16.613436         2    ;  uncertainty k = 0.678423
        23        24        25        26     9        0.000000       -0.170198         3    ;  uncertainty k = 0.936675
        23        24        25        26     9      180.000000        1.390477         4    ;  uncertainty k = 0.805381
        23        24        25        47     9        0.000000        0.300787         1    ;  uncertainty k = 0.819103
        23        24        25        47     9      180.000000       15.953971         2    ;  uncertainty k = 0.583266
        23        24        25        47     9        0.000000        1.510745         3    ;  uncertainty k = 0.614116
        23        24        25        47     9      180.000000        1.257997         4    ;  uncertainty k = 0.533488
        23        28        27        26     9        0.000000       -1.044743         1    ;  uncertainty k = 1.148581
        23        28        27        26     9      180.000000       16.613436         2    ;  uncertainty k = 0.678423
        23        28        27        26     9        0.000000       -0.170198         3    ;  uncertainty k = 0.936675
        23        28        27        26     9      180.000000        1.390477         4    ;  uncertainty k = 0.805381
        23        28        27        48     9        0.000000        0.300787         1    ;  uncertainty k = 0.819103
        23        28        27        48     9      180.000000       15.953971         2    ;  uncertainty k = 0.583266
        23        28        27        48     9        0.000000        1.510745         3    ;  uncertainty k = 0.614116
        23        28        27        48     9      180.000000        1.257997         4    ;  uncertainty k = 0.533488
        24        23        28        27     9        0.000000        0.382183         1    ;  uncertainty k = 1.521954
        24        23        28        27     9      180.000000        7.161514         2    ;  uncertainty k = 0.702745
        24        23        28        27     9        0.000000        0.841556         3    ;  uncertainty k = 0.534235
        24        23        28        27     9      180.000000        0.626542         4    ;  uncertainty k = 0.104637
        24        25        26        27     9        0.000000        0.078050         1    ;  uncertainty k = 0.482752
        24        25        26        27     9      180.000000        9.935784         2    ;  uncertainty k = 0.221792
        24        25        26        27     9        0.000000       -0.311471         3    ;  uncertainty k = 0.179124
        24        25        26        27     9      180.000000        1.272437         4    ;  uncertainty k = 0.202253
        24        25        26        29     9        0.000000        0.116202         1    ;  uncertainty k = 0.751739
        24        25        26        29     9      180.000000       11.151097         2    ;  uncertainty k = 0.334619
        24        25        26        29     9        0.000000        1.055586         3    ;  uncertainty k = 0.314461
        24        25        26        29     9      180.000000        1.575197         4    ;  uncertainty k = 0.269242
        25        24        23        28     9        0.000000        0.382183         1    ;  uncertainty k = 1.521954
        25        24        23        28     9      180.000000        7.161514         2    ;  uncertainty k = 0.702745
        25        24        23        28     9        0.000000        0.841556         3    ;  uncertainty k = 0.534235
        25        24        23        28     9      180.000000        0.626542         4    ;  uncertainty k = 0.104637
        25        26        27        28     9        0.000000        0.078050         1    ;  uncertainty k = 0.482752
        25        26        27        28     9      180.000000        9.935784         2    ;  uncertainty k = 0.221792
        25        26        27        28     9        0.000000       -0.311471         3    ;  uncertainty k = 0.179124
        25        26        27        28     9      180.000000        1.272437         4    ;  uncertainty k = 0.202253
        25        26        27        48     9        0.000000       -0.622072         1    ;  uncertainty k = 0.616506
        25        26        27        48     9      180.000000        4.340335         2    ;  uncertainty k = 1.160221
        25        26        27        48     9        0.000000        0.487526         3    ;  uncertainty k = 0.153318
        25        26        27        48     9      180.000000        1.228653         4    ;  uncertainty k = 0.309251
        25        26        29        30     9        0.000000       -0.267823         1    ;  uncertainty k = 0.670550
        25        26        29        30     9      180.000000        5.293883         2    ;  uncertainty k = 0.163793
        25        26        29        30     9        0.000000        0.461621         3    ;  uncertainty k = 0.316057
        25        26        29        30     9      180.000000        0.009251         4    ;  uncertainty k = 0.138761
        25        26        29        31     9        0.000000       -0.267823         1    ;  uncertainty k = 0.670550
        25        26        29        31     9      180.000000        5.293883         2    ;  uncertainty k = 0.163793
        25        26        29        31     9        0.000000        0.461621         3    ;  uncertainty k = 0.316057
        25        26        29        31     9      180.000000        0.009251         4    ;  uncertainty k = 0.138761
        27        26        25        47     9        0.000000       -0.622072         1    ;  uncertainty k = 0.616506
        27        26        25        47     9      180.000000        4.340335         2    ;  uncertainty k = 1.160221
        27        26        25        47     9        0.000000        0.487526         3    ;  uncertainty k = 0.153318
        27        26        25        47     9      180.000000        1.228653         4    ;  uncertainty k = 0.309251
        27        26        29        30     9        0.000000       -0.267823         1    ;  uncertainty k = 0.670550
        27        26        29        30     9      180.000000        5.293883         2    ;  uncertainty k = 0.163793
        27        26        29        30     9        0.000000        0.461621         3    ;  uncertainty k = 0.316057
        27        26        29        30     9      180.000000        0.009251         4    ;  uncertainty k = 0.138761
        27        26        29        31     9        0.000000       -0.267823         1    ;  uncertainty k = 0.670550
        27        26        29        31     9      180.000000        5.293883         2    ;  uncertainty k = 0.163793
        27        26        29        31     9        0.000000        0.461621         3    ;  uncertainty k = 0.316057
        27        26        29        31     9      180.000000        0.009251         4    ;  uncertainty k = 0.138761
        28        27        26        29     9        0.000000        0.116202         1    ;  uncertainty k = 0.751739
        28        27        26        29     9      180.000000       11.151097         2    ;  uncertainty k = 0.334619
        28        27        26        29     9        0.000000        1.055586         3    ;  uncertainty k = 0.314461
        28        27        26        29     9      180.000000        1.575197         4    ;  uncertainty k = 0.269242
        29        26        25        47     9        0.000000       -0.588880         1    ;  uncertainty k = 1.220279
        29        26        25        47     9      180.000000        7.206944         2    ;  uncertainty k = 0.501356
        29        26        25        47     9        0.000000        0.939871         3    ;  uncertainty k = 0.453685
        29        26        25        47     9      180.000000        1.276385         4    ;  uncertainty k = 0.175714
        29        26        27        48     9        0.000000       -0.588880         1    ;  uncertainty k = 1.220279
        29        26        27        48     9      180.000000        7.206944         2    ;  uncertainty k = 0.501356
        29        26        27        48     9        0.000000        0.939871         3    ;  uncertainty k = 0.453685
        29        26        27        48     9      180.000000        1.276385         4    ;  uncertainty k = 0.175714
        32         6         7        33     9        0.000000       -0.020811         1    ;  uncertainty k = 0.168739
        32         6         7        33     9      180.000000        7.628629         2    ;  uncertainty k = 0.494067
        32         6         7        33     9        0.000000       -0.419007         3    ;  uncertainty k = 0.338956
        32         6         7        33     9      180.000000        0.009969         4    ;  uncertainty k = 0.203192
        33         7         8        34     9        0.000000        0.041838         1    ;  uncertainty k = 0.123335
        33         7         8        34     9      180.000000        7.941961         2    ;  uncertainty k = 0.372063
        33         7         8        34     9        0.000000       -0.460822         3    ;  uncertainty k = 0.327229
        33         7         8        34     9      180.000000        0.152786         4    ;  uncertainty k = 0.182743
        35        12        13        36     9        0.000000       -0.942648         1    ;  uncertainty k = 1.117582
        35        12        13        36     9      180.000000        4.272735         2    ;  uncertainty k = 0.760818
        35        12        13        36     9        0.000000        1.314863         3    ;  uncertainty k = 0.353594
        35        12        13        36     9      180.000000        0.150448         4    ;  uncertainty k = 0.159865
        37        16        17        39     9        0.000000        0.423997         1    ;  uncertainty k = 0.297944
        37        16        17        39     9      180.000000       -0.322772         2    ;  uncertainty k = 0.253709
        37        16        17        39     9        0.000000        0.343158         3    ;  uncertainty k = 0.128711
        37        16        17        39     9      180.000000       -0.041305         4    ;  uncertainty k = 0.061987
        38        16        17        39     9        0.000000        0.423997         1    ;  uncertainty k = 0.297944
        38        16        17        39     9      180.000000       -0.322772         2    ;  uncertainty k = 0.253709
        38        16        17        39     9        0.000000        0.343158         3    ;  uncertainty k = 0.128711
        38        16        17        39     9      180.000000       -0.041305         4    ;  uncertainty k = 0.061987
        39        17        18        40     9        0.000000        0.359874         1    ;  uncertainty k = 0.316165
        39        17        18        40     9      180.000000       -0.360044         2    ;  uncertainty k = 0.197281
        39        17        18        40     9        0.000000        0.364903         3    ;  uncertainty k = 0.128583
        39        17        18        40     9      180.000000       -0.036803         4    ;  uncertainty k = 0.081429
        39        17        18        41     9        0.000000        0.359874         1    ;  uncertainty k = 0.316165
        39        17        18        41     9      180.000000       -0.360044         2    ;  uncertainty k = 0.197281
        39        17        18        41     9        0.000000        0.364903         3    ;  uncertainty k = 0.128583
        39        17        18        41     9      180.000000       -0.036803         4    ;  uncertainty k = 0.081429
        39        17        21        44     9        0.000000        3.534565         1    ;  uncertainty k = 1.183407
        39        17        21        44     9      180.000000       -0.219653         2    ;  uncertainty k = 0.641097
        39        17        21        44     9        0.000000        0.578188         3    ;  uncertainty k = 0.579178
        39        17        21        44     9      180.000000        0.212498         4    ;  uncertainty k = 0.291708
        42        20        21        44     9        0.000000        0.359873         1    ;  uncertainty k = 0.316164
        42        20        21        44     9      180.000000       -0.360044         2    ;  uncertainty k = 0.197280
        42        20        21        44     9        0.000000        0.364903         3    ;  uncertainty k = 0.128583
        42        20        21        44     9      180.000000       -0.036803         4    ;  uncertainty k = 0.081430
        43        20        21        44     9        0.000000        0.359873         1    ;  uncertainty k = 0.316164
        43        20        21        44     9      180.000000       -0.360044         2    ;  uncertainty k = 0.197280
        43        20        21        44     9        0.000000        0.364903         3    ;  uncertainty k = 0.128583
        43        20        21        44     9      180.000000       -0.036803         4    ;  uncertainty k = 0.081430
        44        21        22        45     9        0.000000        0.423998         1    ;  uncertainty k = 0.297943
        44        21        22        45     9      180.000000       -0.322771         2    ;  uncertainty k = 0.253710
        44        21        22        45     9        0.000000        0.343158         3    ;  uncertainty k = 0.128710
        44        21        22        45     9      180.000000       -0.041305         4    ;  uncertainty k = 0.061986
        44        21        22        46     9        0.000000        0.423998         1    ;  uncertainty k = 0.297943
        44        21        22        46     9      180.000000       -0.322771         2    ;  uncertainty k = 0.253710
        44        21        22        46     9        0.000000        0.343158         3    ;  uncertainty k = 0.128710
        44        21        22        46     9      180.000000       -0.041305         4    ;  uncertainty k = 0.061986

[ dihedrals ] ; impropers
;       ai        aj        ak        al funct           phase               k        pn
         2         1         3        15     4      180.000000       52.212275         2    ;  uncertainty k = 0.071533
         2         3        15         1     4      180.000000       52.212275         2    ;  uncertainty k = 0.071533
         2        15         1         3     4      180.000000       52.212275         2    ;  uncertainty k = 0.071533
         3         2         4         9     4      180.000000        9.307070         2    ;  uncertainty k = 0.434424
         3         4         9         2     4      180.000000        9.307070         2    ;  uncertainty k = 0.434424
         3         9         2         4     4      180.000000        9.307070         2    ;  uncertainty k = 0.434424
         4         3         5         6     4      180.000000       15.115265         2    ;  uncertainty k = 0.210077
         4         5         6         3     4      180.000000       15.115265         2    ;  uncertainty k = 0.210077
         4         6         3         5     4      180.000000       15.115265         2    ;  uncertainty k = 0.210077
         6         4         7        32     4      180.000000        2.461866         2    ;  uncertainty k = 0.103989
         6         7        32         4     4      180.000000        2.461866         2    ;  uncertainty k = 0.103989
         6        32         4         7     4      180.000000        2.461866         2    ;  uncertainty k = 0.103989
         7         6         8        33     4      180.000000        4.937375         2    ;  uncertainty k = 0.112089
         7         8        33         6     4      180.000000        4.937375         2    ;  uncertainty k = 0.112089
         7        33         6         8     4      180.000000        4.937375         2    ;  uncertainty k = 0.112089
         8         7         9        34     4      180.000000        2.847066         2    ;  uncertainty k = 0.193190
         8         9        34         7     4      180.000000        2.847066         2    ;  uncertainty k = 0.193190
         8        34         7         9     4      180.000000        2.847066         2    ;  uncertainty k = 0.193190
         9         3         8        10     4      180.000000       12.584195         2    ;  uncertainty k = 0.129690
         9         8        10         3     4      180.000000       12.584195         2    ;  uncertainty k = 0.129690
         9        10         3         8     4      180.000000       12.584195         2    ;  uncertainty k = 0.129690
        12        11        13        35     4      180.000000        0.414726         2    ;  uncertainty k = 0.408832
        12        13        35        11     4      180.000000        0.414726         2    ;  uncertainty k = 0.408832
        12        35        11        13     4      180.000000        0.414726         2    ;  uncertainty k = 0.408832
        13        12        14        36     4      180.000000        0.414726         2    ;  uncertainty k = 0.408832
        13        14        36        12     4      180.000000        0.414726         2    ;  uncertainty k = 0.408832
        13        36        12        14     4      180.000000        0.414726         2    ;  uncertainty k = 0.408832
        19        18        20        23     4      180.000000        0.181807         2    ;  uncertainty k = 0.406533
        19        20        23        18     4      180.000000        0.181807         2    ;  uncertainty k = 0.406533
        19        23        18        20     4      180.000000        0.181807         2    ;  uncertainty k = 0.406533
        23        19        24        28     4      180.000000       45.187947         2    ;  uncertainty k = 0.109480
        23        24        28        19     4      180.000000       45.187947         2    ;  uncertainty k = 0.109480
        23        28        19        24     4      180.000000       45.187947         2    ;  uncertainty k = 0.109480
        25        24        26        47     4      180.000000       17.959551         2    ;  uncertainty k = 0.048154
        25        26        47        24     4      180.000000       17.959551         2    ;  uncertainty k = 0.048154
        25        47        24        26     4      180.000000       17.959551         2    ;  uncertainty k = 0.048154
        26        25        27        29     4      180.000000        3.481096         2    ;  uncertainty k = 0.914721
        26        27        29        25     4      180.000000        3.481096         2    ;  uncertainty k = 0.914721
        26        29        25        27     4      180.000000        3.481096         2    ;  uncertainty k = 0.914721
        27        26        28        48     4      180.000000       17.959551         2    ;  uncertainty k = 0.048154
        27        28        48        26     4      180.000000       17.959551         2    ;  uncertainty k = 0.048154
        27        48        26        28     4      180.000000       17.959551         2    ;  uncertainty k = 0.048154
        29        26        30        31     4      180.000000       64.064255         2    ;  uncertainty k = 0.045727
        29        30        31        26     4      180.000000       64.064255         2    ;  uncertainty k = 0.045727
        29        31        26        30     4      180.000000       64.064255         2    ;  uncertainty k = 0.045727

[ pairs ]
;       ai        aj funct
         1         4     1
         1         9     1
         1        16     1
         1        22     1
         2         5     1
         2         6     1
         2         8     1
         2        10     1
         2        17     1
         2        21     1
         2        37     1
         2        38     1
         2        45     1
         2        46     1
         3         7     1
         3        11     1
         3        14     1
         3        16     1
         3        22     1
         3        32     1
         3        34     1
         4         8     1
         4        10     1
         4        15     1
         4        33     1
         5         7     1
         5         9     1
         5        32     1
         6         9     1
         6        34     1
         7        10     1
         8        11     1
         8        14     1
         8        32     1
         9        12     1
         9        13     1
         9        15     1
         9        33     1
        10        34     1
        10        35     1
        10        36     1
        11        36     1
        14        35     1
        15        18     1
        15        20     1
        15        39     1
        15        44     1
        16        19     1
        16        20     1
        16        40     1
        16        41     1
        16        44     1
        16        45     1
        16        46     1
        17        23     1
        17        42     1
        17        43     1
        17        45     1
        17        46     1
        18        22     1
        18        24     1
        18        28     1
        18        37     1
        18        38     1
        18        42     1
        18        43     1
        18        44     1
        19        22     1
        19        25     1
        19        27     1
        19        39     1
        19        44     1
        20        24     1
        20        28     1
        20        39     1
        20        40     1
        20        41     1
        20        45     1
        20        46     1
        21        23     1
        21        37     1
        21        38     1
        21        40     1
        21        41     1
        22        37     1
        22        38     1
        22        39     1
        22        42     1
        22        43     1
        23        26     1
        23        40     1
        23        41     1
        23        42     1
        23        43     1
        23        47     1
        23        48     1
        24        27     1
        24        29     1
        25        28     1
        25        30     1
        25        31     1
        25        48     1
        27        30     1
        27        31     1
        27        47     1
        28        29     1
        29        47     1
        29        48     1
        32        33     1
        33        34     1
        35        36     1
        37        39     1
        38        39     1
        39        40     1
        39        41     1
        39        44     1
        42        44     1
        43        44     1
        44        45     1
        44        46     1
