; ITP file created by ByteFF-joint-25, 2025-07-14 11:28:28.934025

[ atomtypes ]
;name           bonded.type        at.num        mass        charge   ptype           sigma         epsilon
 c0bf                                   6      0.0000       0.00000       A     3.39772e-01     4.51076e-01    ;  uncertainty sigma = 0.000006, epsilon = 0.000570
 c1bf                                   6      0.0000       0.00000       A     3.31525e-01     4.12866e-01    ;  uncertainty sigma = 0.000008, epsilon = 0.000917
 n2bf                                   7      0.0000       0.00000       A     3.38415e-01     3.93556e-01    ;  uncertainty sigma = 0.000006, epsilon = 0.000995
 c3bf                                   6      0.0000       0.00000       A     3.31548e-01     4.13388e-01    ;  uncertainty sigma = 0.000015, epsilon = 0.000747
 n4bf                                   7      0.0000       0.00000       A     3.38415e-01     3.93556e-01    ;  uncertainty sigma = 0.000006, epsilon = 0.000995
 c5bf                                   6      0.0000       0.00000       A     3.31525e-01     4.12866e-01    ;  uncertainty sigma = 0.000008, epsilon = 0.000917
 c6bf                                   6      0.0000       0.00000       A     3.39772e-01     4.51076e-01    ;  uncertainty sigma = 0.000006, epsilon = 0.000570
 c7bf                                   6      0.0000       0.00000       A     3.31519e-01     4.12816e-01    ;  uncertainty sigma = 0.000016, epsilon = 0.001408
 cl8bf                                 17      0.0000       0.00000       A     3.46596e-01     1.10370e+00    ;  uncertainty sigma = 0.000025, epsilon = 0.002562
 n9bf                                   7      0.0000       0.00000       A     3.18950e-01     8.99076e-01    ;  uncertainty sigma = 0.000052, epsilon = 0.003577
 c10bf                                  6      0.0000       0.00000       A     3.39774e-01     4.50953e-01    ;  uncertainty sigma = 0.000012, epsilon = 0.001229
 c11bf                                  6      0.0000       0.00000       A     3.39776e-01     4.51373e-01    ;  uncertainty sigma = 0.000009, epsilon = 0.000969
 c12bf                                  6      0.0000       0.00000       A     3.39784e-01     4.51219e-01    ;  uncertainty sigma = 0.000006, epsilon = 0.000696
 n13bf                                  7      0.0000       0.00000       A     3.18086e-01     6.84039e-01    ;  uncertainty sigma = 0.000014, epsilon = 0.001467
 c14bf                                  6      0.0000       0.00000       A     3.39784e-01     4.51219e-01    ;  uncertainty sigma = 0.000006, epsilon = 0.000696
 c15bf                                  6      0.0000       0.00000       A     3.39776e-01     4.51373e-01    ;  uncertainty sigma = 0.000009, epsilon = 0.000969
 c16bf                                  6      0.0000       0.00000       A     3.39774e-01     4.50953e-01    ;  uncertainty sigma = 0.000012, epsilon = 0.001229
 c17bf                                  6      0.0000       0.00000       A     3.31486e-01     4.13134e-01    ;  uncertainty sigma = 0.000026, epsilon = 0.002146
 o18bf                                  8      0.0000       0.00000       A     3.04851e-01     6.12019e-01    ;  uncertainty sigma = 0.000026, epsilon = 0.001020
 c19bf                                  6      0.0000       0.00000       A     3.31488e-01     4.12415e-01    ;  uncertainty sigma = 0.000034, epsilon = 0.001171
 c20bf                                  6      0.0000       0.00000       A     3.31513e-01     4.12834e-01    ;  uncertainty sigma = 0.000016, epsilon = 0.001291
 f21bf                                  9      0.0000       0.00000       A     3.03451e-01     3.47872e-01    ;  uncertainty sigma = 0.000029, epsilon = 0.000470
 c22bf                                  6      0.0000       0.00000       A     3.31522e-01     4.13335e-01    ;  uncertainty sigma = 0.000005, epsilon = 0.000662
 c23bf                                  6      0.0000       0.00000       A     3.31521e-01     4.13421e-01    ;  uncertainty sigma = 0.000006, epsilon = 0.000781
 c24bf                                  6      0.0000       0.00000       A     3.31510e-01     4.13240e-01    ;  uncertainty sigma = 0.000014, epsilon = 0.000923
 c25bf                                  6      0.0000       0.00000       A     3.31553e-01     4.13601e-01    ;  uncertainty sigma = 0.000013, epsilon = 0.001582
 n26bf                                  7      0.0000       0.00000       A     3.20569e-01     8.54049e-01    ;  uncertainty sigma = 0.000030, epsilon = 0.002792
 n27bf                                  7      0.0000       0.00000       A     3.38413e-01     3.93694e-01    ;  uncertainty sigma = 0.000010, epsilon = 0.000693
 c28bf                                  6      0.0000       0.00000       A     3.31537e-01     4.13587e-01    ;  uncertainty sigma = 0.000007, epsilon = 0.000835
 c29bf                                  6      0.0000       0.00000       A     3.31537e-01     4.13587e-01    ;  uncertainty sigma = 0.000007, epsilon = 0.000835
 n30bf                                  7      0.0000       0.00000       A     3.38413e-01     3.93694e-01    ;  uncertainty sigma = 0.000010, epsilon = 0.000693
 h31bf                                  1      0.0000       0.00000       A     2.60029e-01     8.66921e-02    ;  uncertainty sigma = 0.000005, epsilon = 0.000579
 h32bf                                  1      0.0000       0.00000       A     2.60029e-01     8.66921e-02    ;  uncertainty sigma = 0.000005, epsilon = 0.000579
 h33bf                                  1      0.0000       0.00000       A     2.60029e-01     8.66921e-02    ;  uncertainty sigma = 0.000005, epsilon = 0.000579
 h34bf                                  1      0.0000       0.00000       A     2.60029e-01     8.66921e-02    ;  uncertainty sigma = 0.000005, epsilon = 0.000579
 h35bf                                  1      0.0000       0.00000       A     2.60029e-01     8.66921e-02    ;  uncertainty sigma = 0.000005, epsilon = 0.000579
 h36bf                                  1      0.0000       0.00000       A     2.60029e-01     8.66921e-02    ;  uncertainty sigma = 0.000005, epsilon = 0.000579
 h37bf                                  1      0.0000       0.00000       A     2.42199e-01     8.66324e-02    ;  uncertainty sigma = 0.000024, epsilon = 0.001250
 h38bf                                  1      0.0000       0.00000       A     2.42199e-01     8.66324e-02    ;  uncertainty sigma = 0.000024, epsilon = 0.001250
 h39bf                                  1      0.0000       0.00000       A     2.59994e-01     8.68892e-02    ;  uncertainty sigma = 0.000026, epsilon = 0.000553
 h40bf                                  1      0.0000       0.00000       A     2.42194e-01     8.66543e-02    ;  uncertainty sigma = 0.000021, epsilon = 0.000863
 h41bf                                  1      0.0000       0.00000       A     2.42194e-01     8.66543e-02    ;  uncertainty sigma = 0.000021, epsilon = 0.000863
 h42bf                                  1      0.0000       0.00000       A     2.42194e-01     8.66545e-02    ;  uncertainty sigma = 0.000021, epsilon = 0.000863
 h43bf                                  1      0.0000       0.00000       A     2.42194e-01     8.66545e-02    ;  uncertainty sigma = 0.000021, epsilon = 0.000863
 h44bf                                  1      0.0000       0.00000       A     2.59994e-01     8.68892e-02    ;  uncertainty sigma = 0.000026, epsilon = 0.000553
 h45bf                                  1      0.0000       0.00000       A     2.42199e-01     8.66324e-02    ;  uncertainty sigma = 0.000024, epsilon = 0.001250
 h46bf                                  1      0.0000       0.00000       A     2.42199e-01     8.66324e-02    ;  uncertainty sigma = 0.000024, epsilon = 0.001250
 h47bf                                  1      0.0000       0.00000       A     2.62565e-01     6.70682e-02    ;  uncertainty sigma = 0.000010, epsilon = 0.000430
 h48bf                                  1      0.0000       0.00000       A     2.62565e-01     6.69658e-02    ;  uncertainty sigma = 0.000011, epsilon = 0.000532
 h49bf                                  1      0.0000       0.00000       A     2.62555e-01     6.71502e-02    ;  uncertainty sigma = 0.000013, epsilon = 0.000465
 h50bf                                  1      0.0000       0.00000       A     2.53604e-01     6.70805e-02    ;  uncertainty sigma = 0.000028, epsilon = 0.000600
 h51bf                                  1      0.0000       0.00000       A     2.53604e-01     6.70805e-02    ;  uncertainty sigma = 0.000028, epsilon = 0.000600

[ moleculetype ]
;name             nrexcl
 MOL                   3

[ atoms ]
;       nr            type      resi   res      atom      cgnr      charge          mass ; qtot
         1            c0bf         1   UNL        c0         1    -0.15338       12.0110 ; qtot   -0.153
         2            c1bf         1   UNL        c1         2     0.50906       12.0110 ; qtot    0.356
         3            n2bf         1   UNL        n2         3    -0.77239       14.0070 ; qtot   -0.417
         4            c3bf         1   UNL        c3         4     0.91486       12.0110 ; qtot    0.498
         5            n4bf         1   UNL        n4         5    -0.77239       14.0070 ; qtot   -0.274
         6            c5bf         1   UNL        c5         6     0.50906       12.0110 ; qtot    0.235
         7            c6bf         1   UNL        c6         7    -0.15338       12.0110 ; qtot    0.081
         8            c7bf         1   UNL        c7         8    -0.27156       12.0110 ; qtot   -0.190
         9           cl8bf         1   UNL       cl8         9    -0.09313       35.4530 ; qtot   -0.283
        10            n9bf         1   UNL        n9        10    -0.78954       14.0070 ; qtot   -1.073
        11           c10bf         1   UNL       c10        11     0.23390       12.0110 ; qtot   -0.839
        12           c11bf         1   UNL       c11        12    -0.09743       12.0110 ; qtot   -0.936
        13           c12bf         1   UNL       c12        13     0.11057       12.0110 ; qtot   -0.826
        14           n13bf         1   UNL       n13        14    -0.47239       14.0070 ; qtot   -1.298
        15           c14bf         1   UNL       c14        15     0.11057       12.0110 ; qtot   -1.188
        16           c15bf         1   UNL       c15        16    -0.09743       12.0110 ; qtot   -1.285
        17           c16bf         1   UNL       c16        17     0.23390       12.0110 ; qtot   -1.051
        18           c17bf         1   UNL       c17        18     0.70764       12.0110 ; qtot   -0.343
        19           o18bf         1   UNL       o18        19    -0.58293       15.9990 ; qtot   -0.926
        20           c19bf         1   UNL       c19        20    -0.15596       12.0110 ; qtot   -1.082
        21           c20bf         1   UNL       c20        21     0.16292       12.0110 ; qtot   -0.919
        22           f21bf         1   UNL       f21        22    -0.13494       18.9980 ; qtot   -1.054
        23           c22bf         1   UNL       c22        23    -0.15817       12.0110 ; qtot   -1.213
        24           c23bf         1   UNL       c23        24    -0.08197       12.0110 ; qtot   -1.295
        25           c24bf         1   UNL       c24        25    -0.13048       12.0110 ; qtot   -1.425
        26           c25bf         1   UNL       c25        26     0.07222       12.0110 ; qtot   -1.353
        27           n26bf         1   UNL       n26        27     0.30201       14.0070 ; qtot   -1.051
        28           n27bf         1   UNL       n27        28    -0.47243       14.0070 ; qtot   -1.523
        29           c28bf         1   UNL       c28        29     0.20275       12.0110 ; qtot   -1.320
        30           c29bf         1   UNL       c29        30     0.20275       12.0110 ; qtot   -1.118
        31           n30bf         1   UNL       n30        31    -0.47243       14.0070 ; qtot   -1.590
        32           h31bf         1   UNL       h31        32     0.06548        1.0080 ; qtot   -1.525
        33           h32bf         1   UNL       h32        33     0.06548        1.0080 ; qtot   -1.459
        34           h33bf         1   UNL       h33        34     0.06548        1.0080 ; qtot   -1.394
        35           h34bf         1   UNL       h34        35     0.06548        1.0080 ; qtot   -1.328
        36           h35bf         1   UNL       h35        36     0.06548        1.0080 ; qtot   -1.263
        37           h36bf         1   UNL       h36        37     0.06548        1.0080 ; qtot   -1.197
        38           h37bf         1   UNL       h37        38     0.05891        1.0080 ; qtot   -1.138
        39           h38bf         1   UNL       h38        39     0.05891        1.0080 ; qtot   -1.079
        40           h39bf         1   UNL       h39        40     0.07237        1.0080 ; qtot   -1.007
        41           h40bf         1   UNL       h40        41     0.05981        1.0080 ; qtot   -0.947
        42           h41bf         1   UNL       h41        42     0.05981        1.0080 ; qtot   -0.887
        43           h42bf         1   UNL       h42        43     0.05981        1.0080 ; qtot   -0.828
        44           h43bf         1   UNL       h43        44     0.05981        1.0080 ; qtot   -0.768
        45           h44bf         1   UNL       h44        45     0.07237        1.0080 ; qtot   -0.695
        46           h45bf         1   UNL       h45        46     0.05891        1.0080 ; qtot   -0.637
        47           h46bf         1   UNL       h46        47     0.05891        1.0080 ; qtot   -0.578
        48           h47bf         1   UNL       h47        48     0.15846        1.0080 ; qtot   -0.419
        49           h48bf         1   UNL       h48        49     0.14574        1.0080 ; qtot   -0.273
        50           h49bf         1   UNL       h49        50     0.16350        1.0080 ; qtot   -0.110
        51           h50bf         1   UNL       h50        51     0.05496        1.0080 ; qtot   -0.055
        52           h51bf         1   UNL       h51        52     0.05496        1.0080 ; qtot    0.000

[ bonds ]
;       ai        aj funct               r               k
         1         2     1        0.150358   241862.831152    ;  uncertainty r = 0.000028, k = 7.657285
         1        32     1        0.109372   311158.288184    ;  uncertainty r = 0.000009, k = 0.887455
         1        33     1        0.109372   311158.288184    ;  uncertainty r = 0.000009, k = 0.887455
         1        34     1        0.109372   311158.288184    ;  uncertainty r = 0.000009, k = 0.887455
         2         3     1        0.133872   441969.168652    ;  uncertainty r = 0.000108, k = 15.151357
         2         8     1        0.140503   408219.401514    ;  uncertainty r = 0.000069, k = 18.240384
         3         4     1        0.135302   497235.099609    ;  uncertainty r = 0.000126, k = 19.336640
         4         5     1        0.135302   497235.099609    ;  uncertainty r = 0.000126, k = 19.336640
         4        10     1        0.136577   315565.508057    ;  uncertainty r = 0.000132, k = 23.405277
         5         6     1        0.133872   441969.168652    ;  uncertainty r = 0.000108, k = 15.151357
         6         7     1        0.150358   241862.831152    ;  uncertainty r = 0.000028, k = 7.657285
         6         8     1        0.140503   408219.401514    ;  uncertainty r = 0.000069, k = 18.240384
         7        35     1        0.109372   311158.288184    ;  uncertainty r = 0.000009, k = 0.887455
         7        36     1        0.109372   311158.288184    ;  uncertainty r = 0.000009, k = 0.887455
         7        37     1        0.109372   311158.288184    ;  uncertainty r = 0.000009, k = 0.887455
         8         9     1        0.175358   191403.162939    ;  uncertainty r = 0.000109, k = 2.414535
        10        11     1        0.146381   223708.423486    ;  uncertainty r = 0.000058, k = 14.342709
        10        17     1        0.146381   223708.449023    ;  uncertainty r = 0.000058, k = 14.342715
        11        12     1        0.153378   218045.467334    ;  uncertainty r = 0.000067, k = 7.088220
        11        38     1        0.109551   306518.450781    ;  uncertainty r = 0.000069, k = 2.534282
        11        39     1        0.109551   306518.450781    ;  uncertainty r = 0.000069, k = 2.534282
        12        13     1        0.153480   216617.049121    ;  uncertainty r = 0.000023, k = 7.412723
        12        16     1        0.154451   200722.496875    ;  uncertainty r = 0.000080, k = 20.796785
        12        40     1        0.109350   305021.261133    ;  uncertainty r = 0.000029, k = 3.829702
        13        14     1        0.146976   241154.380664    ;  uncertainty r = 0.000047, k = 15.575172
        13        41     1        0.109439   307434.875488    ;  uncertainty r = 0.000026, k = 1.171544
        13        42     1        0.109439   307434.875488    ;  uncertainty r = 0.000026, k = 1.171544
        14        15     1        0.146976   241154.380664    ;  uncertainty r = 0.000047, k = 15.575144
        14        18     1        0.135088   335723.021045    ;  uncertainty r = 0.000166, k = 15.024462
        15        16     1        0.153480   216617.049121    ;  uncertainty r = 0.000023, k = 7.412681
        15        43     1        0.109439   307434.875488    ;  uncertainty r = 0.000026, k = 1.171521
        15        44     1        0.109439   307434.875488    ;  uncertainty r = 0.000026, k = 1.171521
        16        17     1        0.153378   218045.441797    ;  uncertainty r = 0.000067, k = 7.088228
        16        45     1        0.109350   305021.261133    ;  uncertainty r = 0.000029, k = 3.829660
        17        46     1        0.109551   306518.450781    ;  uncertainty r = 0.000069, k = 2.534287
        17        47     1        0.109551   306518.450781    ;  uncertainty r = 0.000069, k = 2.534287
        18        19     1        0.123492   739384.865723    ;  uncertainty r = 0.000039, k = 10.151716
        18        20     1        0.151093   272101.603271    ;  uncertainty r = 0.000079, k = 31.154101
        20        21     1        0.139399   331888.649609    ;  uncertainty r = 0.000087, k = 16.801357
        20        26     1        0.139529   322378.221484    ;  uncertainty r = 0.000112, k = 6.618765
        21        22     1        0.135284   339697.693359    ;  uncertainty r = 0.000139, k = 6.883764
        21        23     1        0.138876   355374.082080    ;  uncertainty r = 0.000029, k = 4.848304
        23        24     1        0.139230   385818.044873    ;  uncertainty r = 0.000031, k = 3.156029
        23        48     1        0.108754   335743.833789    ;  uncertainty r = 0.000014, k = 1.461762
        24        25     1        0.139117   371572.781299    ;  uncertainty r = 0.000042, k = 2.923689
        24        49     1        0.108705   332118.687891    ;  uncertainty r = 0.000011, k = 1.593644
        25        26     1        0.139176   333973.831201    ;  uncertainty r = 0.000089, k = 2.958672
        25        50     1        0.108623   333131.336426    ;  uncertainty r = 0.000019, k = 1.837628
        26        27     1        0.140554   317671.476855    ;  uncertainty r = 0.000102, k = 8.472881
        27        28     1        0.134456   229486.015723    ;  uncertainty r = 0.000080, k = 10.859863
        27        31     1        0.134456   229486.015723    ;  uncertainty r = 0.000080, k = 10.859863
        28        29     1        0.132965   463550.937305    ;  uncertainty r = 0.000052, k = 7.730519
        29        30     1        0.141781   249584.001709    ;  uncertainty r = 0.000103, k = 15.332670
        29        51     1        0.108418   339910.136572    ;  uncertainty r = 0.000037, k = 1.124302
        30        31     1        0.132965   463550.937305    ;  uncertainty r = 0.000052, k = 7.730519
        30        52     1        0.108418   339910.136572    ;  uncertainty r = 0.000037, k = 1.124302

[ angles ]
;       ai        aj        ak funct           theta             cth
         1         2         3     1      119.697708      505.549567    ;  uncertainty theta = 0.002221, k = 0.213720
         1         2         8     1      121.180504      368.141309    ;  uncertainty theta = 0.002382, k = 0.208637
         2         1        32     1      108.770615      387.564132    ;  uncertainty theta = 0.002165, k = 0.049899
         2         1        33     1      108.770615      387.564132    ;  uncertainty theta = 0.002165, k = 0.049899
         2         1        34     1      108.770615      387.564132    ;  uncertainty theta = 0.002165, k = 0.049899
         2         3         4     1      117.589966      403.269103    ;  uncertainty theta = 0.009452, k = 0.200099
         2         8         6     1      122.327797      347.903692    ;  uncertainty theta = 0.007204, k = 0.325017
         2         8         9     1      118.937744      397.412774    ;  uncertainty theta = 0.005041, k = 0.216667
         3         2         8     1      120.243713      593.406896    ;  uncertainty theta = 0.004135, k = 0.105791
         3         4         5     1      128.751419      714.777116    ;  uncertainty theta = 0.005654, k = 0.132223
         3         4        10     1      119.635521      547.624285    ;  uncertainty theta = 0.007820, k = 0.163899
         4         5         6     1      117.589966      403.269103    ;  uncertainty theta = 0.009452, k = 0.200099
         4        10        11     1      113.673477      432.810335    ;  uncertainty theta = 0.003902, k = 0.214474
         4        10        17     1      113.673477      432.810272    ;  uncertainty theta = 0.003902, k = 0.214474
         5         4        10     1      119.635521      547.624285    ;  uncertainty theta = 0.007820, k = 0.163899
         5         6         7     1      119.697708      505.549567    ;  uncertainty theta = 0.002221, k = 0.213720
         5         6         8     1      120.243713      593.406896    ;  uncertainty theta = 0.004135, k = 0.105791
         6         7        35     1      108.770615      387.564132    ;  uncertainty theta = 0.002165, k = 0.049899
         6         7        36     1      108.770615      387.564132    ;  uncertainty theta = 0.002165, k = 0.049899
         6         7        37     1      108.770615      387.564132    ;  uncertainty theta = 0.002165, k = 0.049899
         6         8         9     1      118.937744      397.412774    ;  uncertainty theta = 0.005041, k = 0.216667
         7         6         8     1      121.180504      368.141309    ;  uncertainty theta = 0.002382, k = 0.208637
        10        11        12     1      105.543358      834.662672    ;  uncertainty theta = 0.001817, k = 0.093259
        10        11        38     1      108.562340      456.415882    ;  uncertainty theta = 0.001202, k = 0.062362
        10        11        39     1      108.562340      456.415882    ;  uncertainty theta = 0.001202, k = 0.062362
        10        17        16     1      105.543358      834.662608    ;  uncertainty theta = 0.001817, k = 0.093260
        10        17        46     1      108.562340      456.415818    ;  uncertainty theta = 0.001202, k = 0.062362
        10        17        47     1      108.562340      456.415818    ;  uncertainty theta = 0.001202, k = 0.062362
        11        10        17     1      112.639442      489.228450    ;  uncertainty theta = 0.009972, k = 0.334405
        11        12        13     1      113.001526      495.885112    ;  uncertainty theta = 0.002967, k = 0.272650
        11        12        16     1      106.407143      696.228300    ;  uncertainty theta = 0.000820, k = 0.121960
        11        12        40     1      108.909218      387.529593    ;  uncertainty theta = 0.002428, k = 0.196423
        12        11        38     1      109.942749      401.681046    ;  uncertainty theta = 0.001744, k = 0.042629
        12        11        39     1      109.942749      401.681046    ;  uncertainty theta = 0.001744, k = 0.042629
        12        13        14     1      106.005104      800.142884    ;  uncertainty theta = 0.002837, k = 0.185313
        12        13        41     1      109.812805      398.157914    ;  uncertainty theta = 0.002056, k = 0.096133
        12        13        42     1      109.812805      398.157914    ;  uncertainty theta = 0.002056, k = 0.096133
        12        16        15     1      106.536072      683.535718    ;  uncertainty theta = 0.002057, k = 0.120116
        12        16        17     1      106.407143      696.228492    ;  uncertainty theta = 0.000820, k = 0.121960
        12        16        45     1      109.787766      408.249925    ;  uncertainty theta = 0.001833, k = 0.098421
        13        12        16     1      106.536072      683.535654    ;  uncertainty theta = 0.002057, k = 0.120117
        13        12        40     1      108.976547      381.109245    ;  uncertainty theta = 0.002391, k = 0.150517
        13        14        15     1      114.311745      540.101883    ;  uncertainty theta = 0.003229, k = 0.142692
        13        14        18     1      117.974327      368.182647    ;  uncertainty theta = 0.003980, k = 0.157584
        14        13        41     1      109.203384      457.892789    ;  uncertainty theta = 0.001598, k = 0.109127
        14        13        42     1      109.203384      457.892789    ;  uncertainty theta = 0.001598, k = 0.109127
        14        15        16     1      106.005104      800.142884    ;  uncertainty theta = 0.002837, k = 0.185312
        14        15        43     1      109.203384      457.892789    ;  uncertainty theta = 0.001598, k = 0.109127
        14        15        44     1      109.203384      457.892789    ;  uncertainty theta = 0.001598, k = 0.109127
        14        18        19     1      124.922256      740.345444    ;  uncertainty theta = 0.002458, k = 0.115631
        14        18        20     1      112.159889      368.733068    ;  uncertainty theta = 0.002788, k = 0.265066
        15        14        18     1      117.974327      368.182647    ;  uncertainty theta = 0.003980, k = 0.157584
        15        16        17     1      113.001526      495.885112    ;  uncertainty theta = 0.002967, k = 0.272650
        15        16        45     1      108.976547      381.109245    ;  uncertainty theta = 0.002391, k = 0.150517
        16        12        40     1      109.787766      408.249925    ;  uncertainty theta = 0.001833, k = 0.098421
        16        15        43     1      109.812805      398.157914    ;  uncertainty theta = 0.002056, k = 0.096133
        16        15        44     1      109.812805      398.157914    ;  uncertainty theta = 0.002056, k = 0.096133
        16        17        46     1      109.942749      401.681014    ;  uncertainty theta = 0.001744, k = 0.042629
        16        17        47     1      109.942749      401.681014    ;  uncertainty theta = 0.001744, k = 0.042629
        17        16        45     1      108.909218      387.529561    ;  uncertainty theta = 0.002428, k = 0.196423
        18        20        21     1      122.644753      394.633059    ;  uncertainty theta = 0.009716, k = 0.281698
        18        20        26     1      121.727440      360.483272    ;  uncertainty theta = 0.007459, k = 0.258991
        19        18        20     1      123.973495      474.716636    ;  uncertainty theta = 0.004986, k = 0.295298
        20        21        22     1      116.293533      481.718082    ;  uncertainty theta = 0.003628, k = 0.151958
        20        21        23     1      125.257851      358.228537    ;  uncertainty theta = 0.006392, k = 0.161234
        20        26        25     1      126.248352      383.964293    ;  uncertainty theta = 0.008470, k = 0.143041
        20        26        27     1      115.625549      424.401189    ;  uncertainty theta = 0.005276, k = 0.425221
        21        20        26     1      120.519875      451.018997    ;  uncertainty theta = 0.010533, k = 0.145475
        21        23        24     1      116.906998      480.293111    ;  uncertainty theta = 0.004692, k = 0.077746
        21        23        48     1      120.257713      280.421849    ;  uncertainty theta = 0.001644, k = 0.051464
        22        21        23     1      119.307655      515.150978    ;  uncertainty theta = 0.004276, k = 0.124646
        23        24        25     1      119.580154      501.480038    ;  uncertainty theta = 0.001152, k = 0.050795
        23        24        49     1      120.085129      283.076623    ;  uncertainty theta = 0.000551, k = 0.029815
        24        23        48     1      122.091469      282.690757    ;  uncertainty theta = 0.001292, k = 0.025850
        24        25        26     1      119.295853      511.815512    ;  uncertainty theta = 0.002200, k = 0.078353
        24        25        50     1      121.511391      292.121324    ;  uncertainty theta = 0.001401, k = 0.054323
        25        24        49     1      119.901108      278.613917    ;  uncertainty theta = 0.000633, k = 0.016225
        25        26        27     1      118.568016      453.799094    ;  uncertainty theta = 0.002843, k = 0.118727
        26        25        50     1      118.140259      263.598991    ;  uncertainty theta = 0.002697, k = 0.141621
        26        27        28     1      116.169716      430.317850    ;  uncertainty theta = 0.006654, k = 0.182017
        26        27        31     1      116.169716      430.317850    ;  uncertainty theta = 0.006654, k = 0.182017
        27        28        29     1      105.336914      920.571231    ;  uncertainty theta = 0.004509, k = 0.170853
        27        31        30     1      105.336914      920.571231    ;  uncertainty theta = 0.004509, k = 0.170853
        28        27        31     1      113.935104     1160.946488    ;  uncertainty theta = 0.004391, k = 0.191360
        28        29        30     1      108.874611      885.375859    ;  uncertainty theta = 0.003815, k = 0.097431
        28        29        51     1      119.790878      274.219077    ;  uncertainty theta = 0.003825, k = 0.115835
        29        30        31     1      108.874611      885.375859    ;  uncertainty theta = 0.003815, k = 0.097431
        29        30        52     1      127.065453      242.460680    ;  uncertainty theta = 0.004115, k = 0.077998
        30        29        51     1      127.065453      242.460680    ;  uncertainty theta = 0.004115, k = 0.077998
        31        30        52     1      119.790878      274.219077    ;  uncertainty theta = 0.003825, k = 0.115835
        32         1        33     1      107.146317      313.278117    ;  uncertainty theta = 0.001746, k = 0.027614
        32         1        34     1      107.146317      313.278117    ;  uncertainty theta = 0.001746, k = 0.027614
        33         1        34     1      107.146317      313.278117    ;  uncertainty theta = 0.001746, k = 0.027614
        35         7        36     1      107.146317      313.278117    ;  uncertainty theta = 0.001746, k = 0.027614
        35         7        37     1      107.146317      313.278117    ;  uncertainty theta = 0.001746, k = 0.027614
        36         7        37     1      107.146317      313.278117    ;  uncertainty theta = 0.001746, k = 0.027614
        38        11        39     1      105.123001      312.324913    ;  uncertainty theta = 0.002382, k = 0.114503
        41        13        42     1      105.371437      309.387890    ;  uncertainty theta = 0.003860, k = 0.079571
        43        15        44     1      105.371437      309.387890    ;  uncertainty theta = 0.003860, k = 0.079571
        46        17        47     1      105.123001      312.324913    ;  uncertainty theta = 0.002382, k = 0.114503

[ dihedrals ] ; propers for gromacs 4.5 or higher, use funct 9
;       ai        aj        ak        al funct           phase               k        pn
         1         2         3         4     9        0.000000        0.055127         1    ;  uncertainty k = 0.983547
         1         2         3         4     9      180.000000       14.986256         2    ;  uncertainty k = 0.658012
         1         2         3         4     9        0.000000        2.438175         3    ;  uncertainty k = 0.309149
         1         2         3         4     9      180.000000        1.715872         4    ;  uncertainty k = 0.415203
         1         2         8         6     9        0.000000       -0.029674         1    ;  uncertainty k = 0.579624
         1         2         8         6     9      180.000000        4.664434         2    ;  uncertainty k = 0.682040
         1         2         8         6     9        0.000000        0.657279         3    ;  uncertainty k = 0.291044
         1         2         8         6     9      180.000000        1.124495         4    ;  uncertainty k = 0.373222
         1         2         8         9     9        0.000000        0.095755         1    ;  uncertainty k = 0.283857
         1         2         8         9     9      180.000000        7.451392         2    ;  uncertainty k = 0.322084
         1         2         8         9     9        0.000000        0.850311         3    ;  uncertainty k = 0.240713
         1         2         8         9     9      180.000000        1.107202         4    ;  uncertainty k = 0.269260
         2         3         4         5     9        0.000000       -0.626580         1    ;  uncertainty k = 1.255708
         2         3         4         5     9      180.000000        8.217915         2    ;  uncertainty k = 0.600496
         2         3         4         5     9        0.000000        0.708386         3    ;  uncertainty k = 0.500364
         2         3         4         5     9      180.000000        0.701827         4    ;  uncertainty k = 0.142527
         2         3         4        10     9        0.000000        0.353570         1    ;  uncertainty k = 1.178003
         2         3         4        10     9      180.000000        9.726810         2    ;  uncertainty k = 0.375996
         2         3         4        10     9        0.000000        1.812789         3    ;  uncertainty k = 0.320742
         2         3         4        10     9      180.000000        0.947807         4    ;  uncertainty k = 0.220447
         2         8         6         5     9        0.000000       -0.303279         1    ;  uncertainty k = 0.473505
         2         8         6         5     9      180.000000        7.659117         2    ;  uncertainty k = 0.782083
         2         8         6         5     9        0.000000       -0.380120         3    ;  uncertainty k = 0.310479
         2         8         6         5     9      180.000000        1.134380         4    ;  uncertainty k = 0.240137
         2         8         6         7     9        0.000000       -0.029674         1    ;  uncertainty k = 0.579624
         2         8         6         7     9      180.000000        4.664434         2    ;  uncertainty k = 0.682040
         2         8         6         7     9        0.000000        0.657279         3    ;  uncertainty k = 0.291044
         2         8         6         7     9      180.000000        1.124495         4    ;  uncertainty k = 0.373222
         3         2         1        32     9        0.000000        0.487808         1    ;  uncertainty k = 0.214694
         3         2         1        32     9      180.000000        4.061853         2    ;  uncertainty k = 0.068743
         3         2         1        32     9        0.000000        0.497939         3    ;  uncertainty k = 0.050697
         3         2         1        32     9      180.000000        0.288012         4    ;  uncertainty k = 0.044996
         3         2         1        33     9        0.000000        0.487808         1    ;  uncertainty k = 0.214694
         3         2         1        33     9      180.000000        4.061853         2    ;  uncertainty k = 0.068743
         3         2         1        33     9        0.000000        0.497939         3    ;  uncertainty k = 0.050697
         3         2         1        33     9      180.000000        0.288012         4    ;  uncertainty k = 0.044996
         3         2         1        34     9        0.000000        0.487808         1    ;  uncertainty k = 0.214694
         3         2         1        34     9      180.000000        4.061853         2    ;  uncertainty k = 0.068743
         3         2         1        34     9        0.000000        0.497939         3    ;  uncertainty k = 0.050697
         3         2         1        34     9      180.000000        0.288012         4    ;  uncertainty k = 0.044996
         3         2         8         6     9        0.000000       -0.303279         1    ;  uncertainty k = 0.473505
         3         2         8         6     9      180.000000        7.659117         2    ;  uncertainty k = 0.782083
         3         2         8         6     9        0.000000       -0.380120         3    ;  uncertainty k = 0.310479
         3         2         8         6     9      180.000000        1.134380         4    ;  uncertainty k = 0.240137
         3         2         8         9     9        0.000000        0.195796         1    ;  uncertainty k = 0.272842
         3         2         8         9     9      180.000000        9.391898         2    ;  uncertainty k = 0.355222
         3         2         8         9     9        0.000000        1.401241         3    ;  uncertainty k = 0.327527
         3         2         8         9     9      180.000000        1.507750         4    ;  uncertainty k = 0.254867
         3         4         5         6     9        0.000000       -0.626580         1    ;  uncertainty k = 1.255708
         3         4         5         6     9      180.000000        8.217915         2    ;  uncertainty k = 0.600496
         3         4         5         6     9        0.000000        0.708386         3    ;  uncertainty k = 0.500364
         3         4         5         6     9      180.000000        0.701827         4    ;  uncertainty k = 0.142527
         3         4        10        11     9        0.000000        5.045274         1    ;  uncertainty k = 0.390436
         3         4        10        11     9      180.000000       11.693712         2    ;  uncertainty k = 0.157613
         3         4        10        11     9        0.000000        0.237894         3    ;  uncertainty k = 0.189282
         3         4        10        11     9      180.000000       -0.359027         4    ;  uncertainty k = 0.059648
         3         4        10        17     9        0.000000        5.045270         1    ;  uncertainty k = 0.390439
         3         4        10        17     9      180.000000       11.693709         2    ;  uncertainty k = 0.157613
         3         4        10        17     9        0.000000        0.237893         3    ;  uncertainty k = 0.189282
         3         4        10        17     9      180.000000       -0.359028         4    ;  uncertainty k = 0.059648
         4         3         2         8     9        0.000000       -0.348498         1    ;  uncertainty k = 0.530775
         4         3         2         8     9      180.000000       14.577225         2    ;  uncertainty k = 0.318732
         4         3         2         8     9        0.000000        0.574977         3    ;  uncertainty k = 0.805163
         4         3         2         8     9      180.000000        1.388728         4    ;  uncertainty k = 0.472386
         4         5         6         7     9        0.000000        0.055127         1    ;  uncertainty k = 0.983547
         4         5         6         7     9      180.000000       14.986256         2    ;  uncertainty k = 0.658012
         4         5         6         7     9        0.000000        2.438175         3    ;  uncertainty k = 0.309149
         4         5         6         7     9      180.000000        1.715872         4    ;  uncertainty k = 0.415203
         4         5         6         8     9        0.000000       -0.348498         1    ;  uncertainty k = 0.530775
         4         5         6         8     9      180.000000       14.577225         2    ;  uncertainty k = 0.318732
         4         5         6         8     9        0.000000        0.574977         3    ;  uncertainty k = 0.805163
         4         5         6         8     9      180.000000        1.388728         4    ;  uncertainty k = 0.472386
         4        10        11        12     9        0.000000       -5.341849         1    ;  uncertainty k = 1.911047
         4        10        11        12     9      180.000000        0.704343         2    ;  uncertainty k = 0.678784
         4        10        11        12     9        0.000000        0.784960         3    ;  uncertainty k = 0.277586
         4        10        11        12     9      180.000000        0.323133         4    ;  uncertainty k = 0.130801
         4        10        11        38     9        0.000000       -0.193050         1    ;  uncertainty k = 0.730567
         4        10        11        38     9      180.000000        1.022594         2    ;  uncertainty k = 0.399999
         4        10        11        38     9        0.000000        0.563555         3    ;  uncertainty k = 0.127882
         4        10        11        38     9      180.000000        0.376311         4    ;  uncertainty k = 0.102384
         4        10        11        39     9        0.000000       -0.193050         1    ;  uncertainty k = 0.730567
         4        10        11        39     9      180.000000        1.022594         2    ;  uncertainty k = 0.399999
         4        10        11        39     9        0.000000        0.563555         3    ;  uncertainty k = 0.127882
         4        10        11        39     9      180.000000        0.376311         4    ;  uncertainty k = 0.102384
         4        10        17        16     9        0.000000       -5.341852         1    ;  uncertainty k = 1.911047
         4        10        17        16     9      180.000000        0.704343         2    ;  uncertainty k = 0.678783
         4        10        17        16     9        0.000000        0.784960         3    ;  uncertainty k = 0.277585
         4        10        17        16     9      180.000000        0.323133         4    ;  uncertainty k = 0.130800
         4        10        17        46     9        0.000000       -0.193051         1    ;  uncertainty k = 0.730565
         4        10        17        46     9      180.000000        1.022593         2    ;  uncertainty k = 0.400001
         4        10        17        46     9        0.000000        0.563555         3    ;  uncertainty k = 0.127883
         4        10        17        46     9      180.000000        0.376311         4    ;  uncertainty k = 0.102384
         4        10        17        47     9        0.000000       -0.193051         1    ;  uncertainty k = 0.730565
         4        10        17        47     9      180.000000        1.022593         2    ;  uncertainty k = 0.400001
         4        10        17        47     9        0.000000        0.563555         3    ;  uncertainty k = 0.127883
         4        10        17        47     9      180.000000        0.376311         4    ;  uncertainty k = 0.102384
         5         4        10        11     9        0.000000        5.045274         1    ;  uncertainty k = 0.390436
         5         4        10        11     9      180.000000       11.693712         2    ;  uncertainty k = 0.157613
         5         4        10        11     9        0.000000        0.237894         3    ;  uncertainty k = 0.189282
         5         4        10        11     9      180.000000       -0.359027         4    ;  uncertainty k = 0.059648
         5         4        10        17     9        0.000000        5.045270         1    ;  uncertainty k = 0.390439
         5         4        10        17     9      180.000000       11.693709         2    ;  uncertainty k = 0.157613
         5         4        10        17     9        0.000000        0.237893         3    ;  uncertainty k = 0.189282
         5         4        10        17     9      180.000000       -0.359028         4    ;  uncertainty k = 0.059648
         5         6         7        35     9        0.000000        0.487808         1    ;  uncertainty k = 0.214694
         5         6         7        35     9      180.000000        4.061853         2    ;  uncertainty k = 0.068743
         5         6         7        35     9        0.000000        0.497939         3    ;  uncertainty k = 0.050697
         5         6         7        35     9      180.000000        0.288012         4    ;  uncertainty k = 0.044996
         5         6         7        36     9        0.000000        0.487808         1    ;  uncertainty k = 0.214694
         5         6         7        36     9      180.000000        4.061853         2    ;  uncertainty k = 0.068743
         5         6         7        36     9        0.000000        0.497939         3    ;  uncertainty k = 0.050697
         5         6         7        36     9      180.000000        0.288012         4    ;  uncertainty k = 0.044996
         5         6         7        37     9        0.000000        0.487808         1    ;  uncertainty k = 0.214694
         5         6         7        37     9      180.000000        4.061853         2    ;  uncertainty k = 0.068743
         5         6         7        37     9        0.000000        0.497939         3    ;  uncertainty k = 0.050697
         5         6         7        37     9      180.000000        0.288012         4    ;  uncertainty k = 0.044996
         5         6         8         9     9        0.000000        0.195796         1    ;  uncertainty k = 0.272842
         5         6         8         9     9      180.000000        9.391898         2    ;  uncertainty k = 0.355222
         5         6         8         9     9        0.000000        1.401241         3    ;  uncertainty k = 0.327527
         5         6         8         9     9      180.000000        1.507750         4    ;  uncertainty k = 0.254867
         6         5         4        10     9        0.000000        0.353570         1    ;  uncertainty k = 1.178003
         6         5         4        10     9      180.000000        9.726810         2    ;  uncertainty k = 0.375996
         6         5         4        10     9        0.000000        1.812789         3    ;  uncertainty k = 0.320742
         6         5         4        10     9      180.000000        0.947807         4    ;  uncertainty k = 0.220447
         7         6         8         9     9        0.000000        0.095755         1    ;  uncertainty k = 0.283857
         7         6         8         9     9      180.000000        7.451392         2    ;  uncertainty k = 0.322084
         7         6         8         9     9        0.000000        0.850311         3    ;  uncertainty k = 0.240713
         7         6         8         9     9      180.000000        1.107202         4    ;  uncertainty k = 0.269260
         8         2         1        32     9        0.000000       -0.440105         1    ;  uncertainty k = 0.190911
         8         2         1        32     9      180.000000        3.406168         2    ;  uncertainty k = 0.183686
         8         2         1        32     9        0.000000        0.444402         3    ;  uncertainty k = 0.072497
         8         2         1        32     9      180.000000        0.299592         4    ;  uncertainty k = 0.065505
         8         2         1        33     9        0.000000       -0.440105         1    ;  uncertainty k = 0.190911
         8         2         1        33     9      180.000000        3.406168         2    ;  uncertainty k = 0.183686
         8         2         1        33     9        0.000000        0.444402         3    ;  uncertainty k = 0.072497
         8         2         1        33     9      180.000000        0.299592         4    ;  uncertainty k = 0.065505
         8         2         1        34     9        0.000000       -0.440105         1    ;  uncertainty k = 0.190911
         8         2         1        34     9      180.000000        3.406168         2    ;  uncertainty k = 0.183686
         8         2         1        34     9        0.000000        0.444402         3    ;  uncertainty k = 0.072497
         8         2         1        34     9      180.000000        0.299592         4    ;  uncertainty k = 0.065505
         8         6         7        35     9        0.000000       -0.440105         1    ;  uncertainty k = 0.190911
         8         6         7        35     9      180.000000        3.406168         2    ;  uncertainty k = 0.183686
         8         6         7        35     9        0.000000        0.444402         3    ;  uncertainty k = 0.072497
         8         6         7        35     9      180.000000        0.299592         4    ;  uncertainty k = 0.065505
         8         6         7        36     9        0.000000       -0.440105         1    ;  uncertainty k = 0.190911
         8         6         7        36     9      180.000000        3.406168         2    ;  uncertainty k = 0.183686
         8         6         7        36     9        0.000000        0.444402         3    ;  uncertainty k = 0.072497
         8         6         7        36     9      180.000000        0.299592         4    ;  uncertainty k = 0.065505
         8         6         7        37     9        0.000000       -0.440105         1    ;  uncertainty k = 0.190911
         8         6         7        37     9      180.000000        3.406168         2    ;  uncertainty k = 0.183686
         8         6         7        37     9        0.000000        0.444402         3    ;  uncertainty k = 0.072497
         8         6         7        37     9      180.000000        0.299592         4    ;  uncertainty k = 0.065505
        10        11        12        13     9        0.000000       -1.986982         1    ;  uncertainty k = 1.131584
        10        11        12        13     9      180.000000        0.974419         2    ;  uncertainty k = 0.865256
        10        11        12        13     9        0.000000        1.658617         3    ;  uncertainty k = 0.387464
        10        11        12        13     9      180.000000       -0.170489         4    ;  uncertainty k = 0.236445
        10        11        12        16     9        0.000000       -0.248946         1    ;  uncertainty k = 1.669285
        10        11        12        16     9      180.000000        6.161829         2    ;  uncertainty k = 1.110762
        10        11        12        16     9        0.000000        0.670927         3    ;  uncertainty k = 0.347090
        10        11        12        16     9      180.000000       -1.488831         4    ;  uncertainty k = 0.506459
        10        11        12        40     9        0.000000        0.565925         1    ;  uncertainty k = 0.856652
        10        11        12        40     9      180.000000        1.324272         2    ;  uncertainty k = 0.513615
        10        11        12        40     9        0.000000        1.171168         3    ;  uncertainty k = 0.217600
        10        11        12        40     9      180.000000       -0.072433         4    ;  uncertainty k = 0.184790
        10        17        16        12     9        0.000000       -0.248945         1    ;  uncertainty k = 1.669287
        10        17        16        12     9      180.000000        6.161828         2    ;  uncertainty k = 1.110762
        10        17        16        12     9        0.000000        0.670927         3    ;  uncertainty k = 0.347090
        10        17        16        12     9      180.000000       -1.488831         4    ;  uncertainty k = 0.506459
        10        17        16        15     9        0.000000       -1.986983         1    ;  uncertainty k = 1.131583
        10        17        16        15     9      180.000000        0.974418         2    ;  uncertainty k = 0.865255
        10        17        16        15     9        0.000000        1.658617         3    ;  uncertainty k = 0.387464
        10        17        16        15     9      180.000000       -0.170489         4    ;  uncertainty k = 0.236446
        10        17        16        45     9        0.000000        0.565925         1    ;  uncertainty k = 0.856650
        10        17        16        45     9      180.000000        1.324272         2    ;  uncertainty k = 0.513613
        10        17        16        45     9        0.000000        1.171168         3    ;  uncertainty k = 0.217600
        10        17        16        45     9      180.000000       -0.072433         4    ;  uncertainty k = 0.184790
        11        10        17        16     9        0.000000        0.409930         1    ;  uncertainty k = 1.033844
        11        10        17        16     9      180.000000        1.423324         2    ;  uncertainty k = 1.181230
        11        10        17        16     9        0.000000        0.860226         3    ;  uncertainty k = 0.332034
        11        10        17        16     9      180.000000        0.010765         4    ;  uncertainty k = 0.168707
        11        10        17        46     9        0.000000       -2.106814         1    ;  uncertainty k = 0.722683
        11        10        17        46     9      180.000000        1.271151         2    ;  uncertainty k = 0.391417
        11        10        17        46     9        0.000000        1.144990         3    ;  uncertainty k = 0.081015
        11        10        17        46     9      180.000000        0.249969         4    ;  uncertainty k = 0.124009
        11        10        17        47     9        0.000000       -2.106814         1    ;  uncertainty k = 0.722683
        11        10        17        47     9      180.000000        1.271151         2    ;  uncertainty k = 0.391417
        11        10        17        47     9        0.000000        1.144990         3    ;  uncertainty k = 0.081015
        11        10        17        47     9      180.000000        0.249969         4    ;  uncertainty k = 0.124009
        11        12        13        14     9        0.000000       -2.607420         1    ;  uncertainty k = 0.995424
        11        12        13        14     9      180.000000        0.022076         2    ;  uncertainty k = 0.727033
        11        12        13        14     9        0.000000        1.612970         3    ;  uncertainty k = 0.235291
        11        12        13        14     9      180.000000       -0.185713         4    ;  uncertainty k = 0.112586
        11        12        13        41     9        0.000000       -0.498818         1    ;  uncertainty k = 0.107247
        11        12        13        41     9      180.000000       -0.409706         2    ;  uncertainty k = 0.197166
        11        12        13        41     9        0.000000        0.564543         3    ;  uncertainty k = 0.186998
        11        12        13        41     9      180.000000       -0.072177         4    ;  uncertainty k = 0.062323
        11        12        13        42     9        0.000000       -0.498818         1    ;  uncertainty k = 0.107247
        11        12        13        42     9      180.000000       -0.409706         2    ;  uncertainty k = 0.197166
        11        12        13        42     9        0.000000        0.564543         3    ;  uncertainty k = 0.186998
        11        12        13        42     9      180.000000       -0.072177         4    ;  uncertainty k = 0.062323
        11        12        16        15     9        0.000000       -3.847150         1    ;  uncertainty k = 0.842081
        11        12        16        15     9      180.000000        0.994502         2    ;  uncertainty k = 1.017626
        11        12        16        15     9        0.000000        1.189094         3    ;  uncertainty k = 0.581588
        11        12        16        15     9      180.000000       -0.416044         4    ;  uncertainty k = 0.334399
        11        12        16        17     9        0.000000       -3.896618         1    ;  uncertainty k = 1.087275
        11        12        16        17     9      180.000000        1.035025         2    ;  uncertainty k = 1.026286
        11        12        16        17     9        0.000000        1.207838         3    ;  uncertainty k = 0.671623
        11        12        16        17     9      180.000000       -0.436931         4    ;  uncertainty k = 0.343366
        11        12        16        45     9        0.000000       -1.223112         1    ;  uncertainty k = 0.611377
        11        12        16        45     9      180.000000        0.489634         2    ;  uncertainty k = 0.414978
        11        12        16        45     9        0.000000        0.997353         3    ;  uncertainty k = 0.241670
        11        12        16        45     9      180.000000        0.066778         4    ;  uncertainty k = 0.087125
        12        11        10        17     9        0.000000        0.409929         1    ;  uncertainty k = 1.033846
        12        11        10        17     9      180.000000        1.423324         2    ;  uncertainty k = 1.181232
        12        11        10        17     9        0.000000        0.860226         3    ;  uncertainty k = 0.332035
        12        11        10        17     9      180.000000        0.010765         4    ;  uncertainty k = 0.168708
        12        13        14        15     9        0.000000       -0.578347         1    ;  uncertainty k = 0.919747
        12        13        14        15     9      180.000000        0.242792         2    ;  uncertainty k = 0.701024
        12        13        14        15     9        0.000000        0.797027         3    ;  uncertainty k = 0.218418
        12        13        14        15     9      180.000000        0.154107         4    ;  uncertainty k = 0.246781
        12        13        14        18     9        0.000000       -0.209381         1    ;  uncertainty k = 0.966461
        12        13        14        18     9      180.000000       -0.541701         2    ;  uncertainty k = 0.373893
        12        13        14        18     9        0.000000        0.202801         3    ;  uncertainty k = 0.362931
        12        13        14        18     9      180.000000        0.702312         4    ;  uncertainty k = 0.132281
        12        16        15        14     9        0.000000       -0.736764         1    ;  uncertainty k = 0.633515
        12        16        15        14     9      180.000000        6.025412         2    ;  uncertainty k = 1.000861
        12        16        15        14     9        0.000000        0.435197         3    ;  uncertainty k = 0.297546
        12        16        15        14     9      180.000000       -1.170163         4    ;  uncertainty k = 0.204855
        12        16        15        43     9        0.000000        0.480411         1    ;  uncertainty k = 0.492791
        12        16        15        43     9      180.000000       -1.104496         2    ;  uncertainty k = 0.672329
        12        16        15        43     9        0.000000       -0.270073         3    ;  uncertainty k = 0.170671
        12        16        15        43     9      180.000000       -0.013160         4    ;  uncertainty k = 0.174221
        12        16        15        44     9        0.000000        0.480411         1    ;  uncertainty k = 0.492791
        12        16        15        44     9      180.000000       -1.104496         2    ;  uncertainty k = 0.672329
        12        16        15        44     9        0.000000       -0.270073         3    ;  uncertainty k = 0.170671
        12        16        15        44     9      180.000000       -0.013160         4    ;  uncertainty k = 0.174221
        12        16        17        46     9        0.000000        0.646621         1    ;  uncertainty k = 0.517783
        12        16        17        46     9      180.000000       -1.099688         2    ;  uncertainty k = 0.743824
        12        16        17        46     9        0.000000       -0.334779         3    ;  uncertainty k = 0.213643
        12        16        17        46     9      180.000000       -0.018734         4    ;  uncertainty k = 0.206092
        12        16        17        47     9        0.000000        0.646621         1    ;  uncertainty k = 0.517783
        12        16        17        47     9      180.000000       -1.099688         2    ;  uncertainty k = 0.743824
        12        16        17        47     9        0.000000       -0.334779         3    ;  uncertainty k = 0.213643
        12        16        17        47     9      180.000000       -0.018734         4    ;  uncertainty k = 0.206092
        13        12        11        38     9        0.000000       -0.670734         1    ;  uncertainty k = 0.233995
        13        12        11        38     9      180.000000       -0.386310         2    ;  uncertainty k = 0.258590
        13        12        11        38     9        0.000000        0.557637         3    ;  uncertainty k = 0.179621
        13        12        11        38     9      180.000000       -0.081826         4    ;  uncertainty k = 0.095492
        13        12        11        39     9        0.000000       -0.670734         1    ;  uncertainty k = 0.233995
        13        12        11        39     9      180.000000       -0.386310         2    ;  uncertainty k = 0.258590
        13        12        11        39     9        0.000000        0.557637         3    ;  uncertainty k = 0.179621
        13        12        11        39     9      180.000000       -0.081826         4    ;  uncertainty k = 0.095492
        13        12        16        15     9        0.000000       -3.717091         1    ;  uncertainty k = 0.646014
        13        12        16        15     9      180.000000        0.952705         2    ;  uncertainty k = 0.984304
        13        12        16        15     9        0.000000        1.178983         3    ;  uncertainty k = 0.499657
        13        12        16        15     9      180.000000       -0.410261         4    ;  uncertainty k = 0.338854
        13        12        16        17     9        0.000000       -3.847151         1    ;  uncertainty k = 0.842082
        13        12        16        17     9      180.000000        0.994504         2    ;  uncertainty k = 1.017625
        13        12        16        17     9        0.000000        1.189094         3    ;  uncertainty k = 0.581588
        13        12        16        17     9      180.000000       -0.416044         4    ;  uncertainty k = 0.334399
        13        12        16        45     9        0.000000       -1.291634         1    ;  uncertainty k = 0.560343
        13        12        16        45     9      180.000000        0.594321         2    ;  uncertainty k = 0.368266
        13        12        16        45     9        0.000000        1.030260         3    ;  uncertainty k = 0.246250
        13        12        16        45     9      180.000000        0.081405         4    ;  uncertainty k = 0.059901
        13        14        15        16     9        0.000000       -0.578347         1    ;  uncertainty k = 0.919747
        13        14        15        16     9      180.000000        0.242792         2    ;  uncertainty k = 0.701025
        13        14        15        16     9        0.000000        0.797027         3    ;  uncertainty k = 0.218419
        13        14        15        16     9      180.000000        0.154107         4    ;  uncertainty k = 0.246781
        13        14        15        43     9        0.000000       -1.810377         1    ;  uncertainty k = 0.576097
        13        14        15        43     9      180.000000        1.086382         2    ;  uncertainty k = 0.426528
        13        14        15        43     9        0.000000        1.250141         3    ;  uncertainty k = 0.136647
        13        14        15        43     9      180.000000        0.301768         4    ;  uncertainty k = 0.117464
        13        14        15        44     9        0.000000       -1.810377         1    ;  uncertainty k = 0.576097
        13        14        15        44     9      180.000000        1.086382         2    ;  uncertainty k = 0.426528
        13        14        15        44     9        0.000000        1.250141         3    ;  uncertainty k = 0.136647
        13        14        15        44     9      180.000000        0.301768         4    ;  uncertainty k = 0.117464
        13        14        18        19     9        0.000000        6.357003         1    ;  uncertainty k = 0.547606
        13        14        18        19     9      180.000000       16.962734         2    ;  uncertainty k = 0.212954
        13        14        18        19     9        0.000000        0.267170         3    ;  uncertainty k = 0.202910
        13        14        18        19     9      180.000000       -1.190649         4    ;  uncertainty k = 0.124612
        13        14        18        20     9        0.000000        3.407849         1    ;  uncertainty k = 1.339110
        13        14        18        20     9      180.000000        8.996075         2    ;  uncertainty k = 0.412445
        13        14        18        20     9        0.000000        1.595044         3    ;  uncertainty k = 0.230309
        13        14        18        20     9      180.000000       -0.020267         4    ;  uncertainty k = 0.371981
        14        13        12        16     9        0.000000       -0.736762         1    ;  uncertainty k = 0.633517
        14        13        12        16     9      180.000000        6.025413         2    ;  uncertainty k = 1.000861
        14        13        12        16     9        0.000000        0.435196         3    ;  uncertainty k = 0.297545
        14        13        12        16     9      180.000000       -1.170163         4    ;  uncertainty k = 0.204856
        14        13        12        40     9        0.000000        0.123161         1    ;  uncertainty k = 0.632773
        14        13        12        40     9      180.000000        0.836162         2    ;  uncertainty k = 0.434791
        14        13        12        40     9        0.000000        1.098159         3    ;  uncertainty k = 0.161086
        14        13        12        40     9      180.000000       -0.066245         4    ;  uncertainty k = 0.104331
        14        15        16        17     9        0.000000       -2.607419         1    ;  uncertainty k = 0.995424
        14        15        16        17     9      180.000000        0.022076         2    ;  uncertainty k = 0.727033
        14        15        16        17     9        0.000000        1.612970         3    ;  uncertainty k = 0.235290
        14        15        16        17     9      180.000000       -0.185713         4    ;  uncertainty k = 0.112586
        14        15        16        45     9        0.000000        0.123160         1    ;  uncertainty k = 0.632774
        14        15        16        45     9      180.000000        0.836161         2    ;  uncertainty k = 0.434791
        14        15        16        45     9        0.000000        1.098159         3    ;  uncertainty k = 0.161086
        14        15        16        45     9      180.000000       -0.066245         4    ;  uncertainty k = 0.104331
        14        18        20        21     9        0.000000        1.851367         1    ;  uncertainty k = 1.259576
        14        18        20        21     9      180.000000        5.752965         2    ;  uncertainty k = 0.175508
        14        18        20        21     9        0.000000        0.162215         3    ;  uncertainty k = 0.318225
        14        18        20        21     9      180.000000        0.484794         4    ;  uncertainty k = 0.155871
        14        18        20        26     9        0.000000        3.709916         1    ;  uncertainty k = 1.132205
        14        18        20        26     9      180.000000        5.907216         2    ;  uncertainty k = 0.295098
        14        18        20        26     9        0.000000        0.162296         3    ;  uncertainty k = 0.106376
        14        18        20        26     9      180.000000        0.490410         4    ;  uncertainty k = 0.140372
        15        14        13        41     9        0.000000       -1.810377         1    ;  uncertainty k = 0.576098
        15        14        13        41     9      180.000000        1.086382         2    ;  uncertainty k = 0.426526
        15        14        13        41     9        0.000000        1.250141         3    ;  uncertainty k = 0.136647
        15        14        13        41     9      180.000000        0.301768         4    ;  uncertainty k = 0.117464
        15        14        13        42     9        0.000000       -1.810377         1    ;  uncertainty k = 0.576098
        15        14        13        42     9      180.000000        1.086382         2    ;  uncertainty k = 0.426526
        15        14        13        42     9        0.000000        1.250141         3    ;  uncertainty k = 0.136647
        15        14        13        42     9      180.000000        0.301768         4    ;  uncertainty k = 0.117464
        15        14        18        19     9        0.000000        6.357001         1    ;  uncertainty k = 0.547606
        15        14        18        19     9      180.000000       16.962734         2    ;  uncertainty k = 0.212955
        15        14        18        19     9        0.000000        0.267170         3    ;  uncertainty k = 0.202910
        15        14        18        19     9      180.000000       -1.190649         4    ;  uncertainty k = 0.124611
        15        14        18        20     9        0.000000        3.407847         1    ;  uncertainty k = 1.339110
        15        14        18        20     9      180.000000        8.996074         2    ;  uncertainty k = 0.412445
        15        14        18        20     9        0.000000        1.595043         3    ;  uncertainty k = 0.230310
        15        14        18        20     9      180.000000       -0.020268         4    ;  uncertainty k = 0.371981
        15        16        12        40     9        0.000000       -1.291633         1    ;  uncertainty k = 0.560343
        15        16        12        40     9      180.000000        0.594321         2    ;  uncertainty k = 0.368268
        15        16        12        40     9        0.000000        1.030260         3    ;  uncertainty k = 0.246250
        15        16        12        40     9      180.000000        0.081405         4    ;  uncertainty k = 0.059900
        15        16        17        46     9        0.000000       -0.670733         1    ;  uncertainty k = 0.233996
        15        16        17        46     9      180.000000       -0.386309         2    ;  uncertainty k = 0.258591
        15        16        17        46     9        0.000000        0.557638         3    ;  uncertainty k = 0.179621
        15        16        17        46     9      180.000000       -0.081826         4    ;  uncertainty k = 0.095492
        15        16        17        47     9        0.000000       -0.670733         1    ;  uncertainty k = 0.233996
        15        16        17        47     9      180.000000       -0.386309         2    ;  uncertainty k = 0.258591
        15        16        17        47     9        0.000000        0.557638         3    ;  uncertainty k = 0.179621
        15        16        17        47     9      180.000000       -0.081826         4    ;  uncertainty k = 0.095492
        16        12        11        38     9        0.000000        0.646621         1    ;  uncertainty k = 0.517781
        16        12        11        38     9      180.000000       -1.099689         2    ;  uncertainty k = 0.743823
        16        12        11        38     9        0.000000       -0.334778         3    ;  uncertainty k = 0.213644
        16        12        11        38     9      180.000000       -0.018734         4    ;  uncertainty k = 0.206091
        16        12        11        39     9        0.000000        0.646621         1    ;  uncertainty k = 0.517781
        16        12        11        39     9      180.000000       -1.099689         2    ;  uncertainty k = 0.743823
        16        12        11        39     9        0.000000       -0.334778         3    ;  uncertainty k = 0.213644
        16        12        11        39     9      180.000000       -0.018734         4    ;  uncertainty k = 0.206091
        16        12        13        41     9        0.000000        0.480411         1    ;  uncertainty k = 0.492791
        16        12        13        41     9      180.000000       -1.104495         2    ;  uncertainty k = 0.672328
        16        12        13        41     9        0.000000       -0.270073         3    ;  uncertainty k = 0.170671
        16        12        13        41     9      180.000000       -0.013161         4    ;  uncertainty k = 0.174221
        16        12        13        42     9        0.000000        0.480411         1    ;  uncertainty k = 0.492791
        16        12        13        42     9      180.000000       -1.104495         2    ;  uncertainty k = 0.672328
        16        12        13        42     9        0.000000       -0.270073         3    ;  uncertainty k = 0.170671
        16        12        13        42     9      180.000000       -0.013161         4    ;  uncertainty k = 0.174221
        16        15        14        18     9        0.000000       -0.209380         1    ;  uncertainty k = 0.966459
        16        15        14        18     9      180.000000       -0.541701         2    ;  uncertainty k = 0.373894
        16        15        14        18     9        0.000000        0.202801         3    ;  uncertainty k = 0.362931
        16        15        14        18     9      180.000000        0.702311         4    ;  uncertainty k = 0.132281
        17        10        11        38     9        0.000000       -2.106813         1    ;  uncertainty k = 0.722683
        17        10        11        38     9      180.000000        1.271153         2    ;  uncertainty k = 0.391418
        17        10        11        38     9        0.000000        1.144989         3    ;  uncertainty k = 0.081016
        17        10        11        38     9      180.000000        0.249969         4    ;  uncertainty k = 0.124009
        17        10        11        39     9        0.000000       -2.106813         1    ;  uncertainty k = 0.722683
        17        10        11        39     9      180.000000        1.271153         2    ;  uncertainty k = 0.391418
        17        10        11        39     9        0.000000        1.144989         3    ;  uncertainty k = 0.081016
        17        10        11        39     9      180.000000        0.249969         4    ;  uncertainty k = 0.124009
        17        16        12        40     9        0.000000       -1.223110         1    ;  uncertainty k = 0.611378
        17        16        12        40     9      180.000000        0.489635         2    ;  uncertainty k = 0.414979
        17        16        12        40     9        0.000000        0.997353         3    ;  uncertainty k = 0.241669
        17        16        12        40     9      180.000000        0.066778         4    ;  uncertainty k = 0.087125
        17        16        15        43     9        0.000000       -0.498818         1    ;  uncertainty k = 0.107248
        17        16        15        43     9      180.000000       -0.409705         2    ;  uncertainty k = 0.197166
        17        16        15        43     9        0.000000        0.564544         3    ;  uncertainty k = 0.186998
        17        16        15        43     9      180.000000       -0.072177         4    ;  uncertainty k = 0.062323
        17        16        15        44     9        0.000000       -0.498818         1    ;  uncertainty k = 0.107248
        17        16        15        44     9      180.000000       -0.409705         2    ;  uncertainty k = 0.197166
        17        16        15        44     9        0.000000        0.564544         3    ;  uncertainty k = 0.186998
        17        16        15        44     9      180.000000       -0.072177         4    ;  uncertainty k = 0.062323
        18        14        13        41     9        0.000000        1.416105         1    ;  uncertainty k = 0.719804
        18        14        13        41     9      180.000000        0.065610         2    ;  uncertainty k = 0.093474
        18        14        13        41     9        0.000000        0.002232         3    ;  uncertainty k = 0.089343
        18        14        13        41     9      180.000000        0.277826         4    ;  uncertainty k = 0.071341
        18        14        13        42     9        0.000000        1.416105         1    ;  uncertainty k = 0.719804
        18        14        13        42     9      180.000000        0.065610         2    ;  uncertainty k = 0.093474
        18        14        13        42     9        0.000000        0.002232         3    ;  uncertainty k = 0.089343
        18        14        13        42     9      180.000000        0.277826         4    ;  uncertainty k = 0.071341
        18        14        15        43     9        0.000000        1.416105         1    ;  uncertainty k = 0.719804
        18        14        15        43     9      180.000000        0.065610         2    ;  uncertainty k = 0.093472
        18        14        15        43     9        0.000000        0.002232         3    ;  uncertainty k = 0.089343
        18        14        15        43     9      180.000000        0.277826         4    ;  uncertainty k = 0.071341
        18        14        15        44     9        0.000000        1.416105         1    ;  uncertainty k = 0.719804
        18        14        15        44     9      180.000000        0.065610         2    ;  uncertainty k = 0.093472
        18        14        15        44     9        0.000000        0.002232         3    ;  uncertainty k = 0.089343
        18        14        15        44     9      180.000000        0.277826         4    ;  uncertainty k = 0.071341
        18        20        21        22     9        0.000000        0.086680         1    ;  uncertainty k = 0.322670
        18        20        21        22     9      180.000000       11.407953         2    ;  uncertainty k = 0.599565
        18        20        21        22     9        0.000000        1.385161         3    ;  uncertainty k = 0.187005
        18        20        21        22     9      180.000000        1.483635         4    ;  uncertainty k = 0.318096
        18        20        21        23     9        0.000000        0.114462         1    ;  uncertainty k = 0.659063
        18        20        21        23     9      180.000000        6.312817         2    ;  uncertainty k = 0.577136
        18        20        21        23     9        0.000000        1.356865         3    ;  uncertainty k = 0.282275
        18        20        21        23     9      180.000000        1.940646         4    ;  uncertainty k = 0.196893
        18        20        26        25     9        0.000000        0.266109         1    ;  uncertainty k = 0.262230
        18        20        26        25     9      180.000000        6.791976         2    ;  uncertainty k = 0.556220
        18        20        26        25     9        0.000000        1.305735         3    ;  uncertainty k = 0.332052
        18        20        26        25     9      180.000000        1.750369         4    ;  uncertainty k = 0.249436
        18        20        26        27     9        0.000000       -0.079088         1    ;  uncertainty k = 0.890587
        18        20        26        27     9      180.000000       10.037557         2    ;  uncertainty k = 0.622174
        18        20        26        27     9        0.000000        1.315712         3    ;  uncertainty k = 0.504290
        18        20        26        27     9      180.000000        1.286094         4    ;  uncertainty k = 0.361801
        19        18        20        21     9        0.000000       -1.928785         1    ;  uncertainty k = 0.969843
        19        18        20        21     9      180.000000        5.038791         2    ;  uncertainty k = 0.443316
        19        18        20        21     9        0.000000        0.869540         3    ;  uncertainty k = 0.424298
        19        18        20        21     9      180.000000        0.459984         4    ;  uncertainty k = 0.229979
        19        18        20        26     9        0.000000       -3.997731         1    ;  uncertainty k = 0.906468
        19        18        20        26     9      180.000000        5.945518         2    ;  uncertainty k = 0.542758
        19        18        20        26     9        0.000000        0.551178         3    ;  uncertainty k = 0.549645
        19        18        20        26     9      180.000000        0.513462         4    ;  uncertainty k = 0.329406
        20        21        23        24     9        0.000000        0.011529         1    ;  uncertainty k = 0.194930
        20        21        23        24     9      180.000000        8.787238         2    ;  uncertainty k = 0.361867
        20        21        23        24     9        0.000000        0.106727         3    ;  uncertainty k = 0.344316
        20        21        23        24     9      180.000000        1.205900         4    ;  uncertainty k = 0.276948
        20        21        23        48     9        0.000000       -0.168918         1    ;  uncertainty k = 0.390695
        20        21        23        48     9      180.000000        5.695522         2    ;  uncertainty k = 0.674905
        20        21        23        48     9        0.000000        1.129293         3    ;  uncertainty k = 0.356557
        20        21        23        48     9      180.000000        1.505167         4    ;  uncertainty k = 0.216214
        20        26        25        24     9        0.000000       -0.242508         1    ;  uncertainty k = 0.315737
        20        26        25        24     9      180.000000        9.681246         2    ;  uncertainty k = 0.496020
        20        26        25        24     9        0.000000        0.240132         3    ;  uncertainty k = 0.161668
        20        26        25        24     9      180.000000        1.271249         4    ;  uncertainty k = 0.330409
        20        26        25        50     9        0.000000       -0.007148         1    ;  uncertainty k = 0.345797
        20        26        25        50     9      180.000000        6.393420         2    ;  uncertainty k = 0.363299
        20        26        25        50     9        0.000000        1.235598         3    ;  uncertainty k = 0.195907
        20        26        25        50     9      180.000000        1.608512         4    ;  uncertainty k = 0.191460
        20        26        27        28     9        0.000000       -1.535069         1    ;  uncertainty k = 0.563416
        20        26        27        28     9      180.000000        4.499715         2    ;  uncertainty k = 0.535585
        20        26        27        28     9        0.000000        0.637687         3    ;  uncertainty k = 0.351002
        20        26        27        28     9      180.000000       -0.090463         4    ;  uncertainty k = 0.183190
        20        26        27        31     9        0.000000       -1.535069         1    ;  uncertainty k = 0.563416
        20        26        27        31     9      180.000000        4.499715         2    ;  uncertainty k = 0.535585
        20        26        27        31     9        0.000000        0.637687         3    ;  uncertainty k = 0.351002
        20        26        27        31     9      180.000000       -0.090463         4    ;  uncertainty k = 0.183190
        21        20        26        25     9        0.000000       -0.242351         1    ;  uncertainty k = 0.420152
        21        20        26        25     9      180.000000        6.983637         2    ;  uncertainty k = 0.869640
        21        20        26        25     9        0.000000        0.325219         3    ;  uncertainty k = 0.349953
        21        20        26        25     9      180.000000        1.307286         4    ;  uncertainty k = 0.335099
        21        20        26        27     9        0.000000        0.337460         1    ;  uncertainty k = 0.391009
        21        20        26        27     9      180.000000       10.376661         2    ;  uncertainty k = 0.372710
        21        20        26        27     9        0.000000        1.330823         3    ;  uncertainty k = 0.417773
        21        20        26        27     9      180.000000        1.431413         4    ;  uncertainty k = 0.199546
        21        23        24        25     9        0.000000       -0.033963         1    ;  uncertainty k = 0.110226
        21        23        24        25     9      180.000000       13.984025         2    ;  uncertainty k = 0.340845
        21        23        24        25     9        0.000000       -1.042557         3    ;  uncertainty k = 0.357764
        21        23        24        25     9      180.000000        0.802609         4    ;  uncertainty k = 0.247483
        21        23        24        49     9        0.000000       -0.104379         1    ;  uncertainty k = 0.141872
        21        23        24        49     9      180.000000        7.264410         2    ;  uncertainty k = 0.340044
        21        23        24        49     9        0.000000        1.287730         3    ;  uncertainty k = 0.202339
        21        23        24        49     9      180.000000        1.653500         4    ;  uncertainty k = 0.150967
        22        21        20        26     9        0.000000        0.033254         1    ;  uncertainty k = 0.304862
        22        21        20        26     9      180.000000       11.302610         2    ;  uncertainty k = 0.302059
        22        21        20        26     9        0.000000        1.679241         3    ;  uncertainty k = 0.164696
        22        21        20        26     9      180.000000        1.555515         4    ;  uncertainty k = 0.157671
        22        21        23        24     9        0.000000       -0.080232         1    ;  uncertainty k = 0.461474
        22        21        23        24     9      180.000000       13.203682         2    ;  uncertainty k = 0.340325
        22        21        23        24     9        0.000000        1.295972         3    ;  uncertainty k = 0.165134
        22        21        23        24     9      180.000000        1.523069         4    ;  uncertainty k = 0.233966
        22        21        23        48     9        0.000000       -0.128834         1    ;  uncertainty k = 0.456012
        22        21        23        48     9      180.000000        9.556552         2    ;  uncertainty k = 0.491147
        22        21        23        48     9        0.000000        0.767278         3    ;  uncertainty k = 0.273034
        22        21        23        48     9      180.000000        1.024642         4    ;  uncertainty k = 0.200947
        23        21        20        26     9        0.000000       -0.325541         1    ;  uncertainty k = 0.355388
        23        21        20        26     9      180.000000        6.052960         2    ;  uncertainty k = 0.864094
        23        21        20        26     9        0.000000        0.684668         3    ;  uncertainty k = 0.181781
        23        21        20        26     9      180.000000        1.492448         4    ;  uncertainty k = 0.353261
        23        24        25        26     9        0.000000       -0.096416         1    ;  uncertainty k = 0.180639
        23        24        25        26     9      180.000000       13.532949         2    ;  uncertainty k = 0.268821
        23        24        25        26     9        0.000000       -0.934273         3    ;  uncertainty k = 0.410646
        23        24        25        26     9      180.000000        0.824229         4    ;  uncertainty k = 0.239882
        23        24        25        50     9        0.000000        0.090918         1    ;  uncertainty k = 0.138952
        23        24        25        50     9      180.000000        7.803070         2    ;  uncertainty k = 0.340548
        23        24        25        50     9        0.000000        1.340932         3    ;  uncertainty k = 0.288750
        23        24        25        50     9      180.000000        1.895629         4    ;  uncertainty k = 0.190611
        24        25        26        27     9        0.000000        0.460449         1    ;  uncertainty k = 0.322983
        24        25        26        27     9      180.000000       11.387678         2    ;  uncertainty k = 0.346993
        24        25        26        27     9        0.000000        0.982542         3    ;  uncertainty k = 0.164036
        24        25        26        27     9      180.000000        1.624026         4    ;  uncertainty k = 0.138288
        25        24        23        48     9        0.000000        0.058868         1    ;  uncertainty k = 0.276257
        25        24        23        48     9      180.000000        7.716329         2    ;  uncertainty k = 0.326791
        25        24        23        48     9        0.000000        1.437490         3    ;  uncertainty k = 0.272563
        25        24        23        48     9      180.000000        1.759669         4    ;  uncertainty k = 0.126329
        25        26        27        28     9        0.000000        2.394481         1    ;  uncertainty k = 0.740964
        25        26        27        28     9      180.000000        4.329586         2    ;  uncertainty k = 0.263950
        25        26        27        28     9        0.000000        0.391713         3    ;  uncertainty k = 0.190597
        25        26        27        28     9      180.000000        0.083730         4    ;  uncertainty k = 0.150415
        25        26        27        31     9        0.000000        2.394481         1    ;  uncertainty k = 0.740964
        25        26        27        31     9      180.000000        4.329586         2    ;  uncertainty k = 0.263950
        25        26        27        31     9        0.000000        0.391713         3    ;  uncertainty k = 0.190597
        25        26        27        31     9      180.000000        0.083730         4    ;  uncertainty k = 0.150415
        26        25        24        49     9        0.000000       -0.010723         1    ;  uncertainty k = 0.237400
        26        25        24        49     9      180.000000        7.958978         2    ;  uncertainty k = 0.442749
        26        25        24        49     9        0.000000        1.209101         3    ;  uncertainty k = 0.164443
        26        25        24        49     9      180.000000        1.723739         4    ;  uncertainty k = 0.144208
        26        27        28        29     9        0.000000        0.797559         1    ;  uncertainty k = 2.309877
        26        27        28        29     9      180.000000       14.114446         2    ;  uncertainty k = 0.418682
        26        27        28        29     9        0.000000        1.402880         3    ;  uncertainty k = 0.442527
        26        27        28        29     9      180.000000        0.112613         4    ;  uncertainty k = 0.206946
        26        27        31        30     9        0.000000        0.797559         1    ;  uncertainty k = 2.309877
        26        27        31        30     9      180.000000       14.114446         2    ;  uncertainty k = 0.418682
        26        27        31        30     9        0.000000        1.402880         3    ;  uncertainty k = 0.442527
        26        27        31        30     9      180.000000        0.112613         4    ;  uncertainty k = 0.206946
        27        26        25        50     9        0.000000        0.135211         1    ;  uncertainty k = 0.398577
        27        26        25        50     9      180.000000        8.519176         2    ;  uncertainty k = 0.273746
        27        26        25        50     9        0.000000        0.803950         3    ;  uncertainty k = 0.224881
        27        26        25        50     9      180.000000        1.348903         4    ;  uncertainty k = 0.152778
        27        28        29        30     9        0.000000        0.015899         1    ;  uncertainty k = 0.518603
        27        28        29        30     9      180.000000       24.370143         2    ;  uncertainty k = 0.366584
        27        28        29        30     9        0.000000       -9.715998         3    ;  uncertainty k = 1.915613
        27        28        29        30     9      180.000000        2.426696         4    ;  uncertainty k = 0.655510
        27        28        29        51     9        0.000000        0.232294         1    ;  uncertainty k = 0.741580
        27        28        29        51     9      180.000000       22.028694         2    ;  uncertainty k = 0.487024
        27        28        29        51     9        0.000000        1.455895         3    ;  uncertainty k = 0.397708
        27        28        29        51     9      180.000000        1.220382         4    ;  uncertainty k = 0.604170
        27        31        30        29     9        0.000000        0.015899         1    ;  uncertainty k = 0.518603
        27        31        30        29     9      180.000000       24.370143         2    ;  uncertainty k = 0.366584
        27        31        30        29     9        0.000000       -9.715998         3    ;  uncertainty k = 1.915613
        27        31        30        29     9      180.000000        2.426696         4    ;  uncertainty k = 0.655510
        27        31        30        52     9        0.000000        0.232294         1    ;  uncertainty k = 0.741580
        27        31        30        52     9      180.000000       22.028694         2    ;  uncertainty k = 0.487024
        27        31        30        52     9        0.000000        1.455895         3    ;  uncertainty k = 0.397708
        27        31        30        52     9      180.000000        1.220382         4    ;  uncertainty k = 0.604170
        28        27        31        30     9        0.000000       -0.822391         1    ;  uncertainty k = 0.769863
        28        27        31        30     9      180.000000       22.038729         2    ;  uncertainty k = 0.271382
        28        27        31        30     9        0.000000       -8.305140         3    ;  uncertainty k = 1.269833
        28        27        31        30     9      180.000000        1.298759         4    ;  uncertainty k = 0.596553
        28        29        30        31     9        0.000000       -0.480158         1    ;  uncertainty k = 0.926462
        28        29        30        31     9      180.000000       16.735216         2    ;  uncertainty k = 1.309662
        28        29        30        31     9        0.000000      -12.155219         3    ;  uncertainty k = 1.939945
        28        29        30        31     9      180.000000        1.991293         4    ;  uncertainty k = 0.750423
        28        29        30        52     9        0.000000        0.154897         1    ;  uncertainty k = 0.970262
        28        29        30        52     9      180.000000       11.842300         2    ;  uncertainty k = 0.614370
        28        29        30        52     9        0.000000        0.922189         3    ;  uncertainty k = 0.757887
        28        29        30        52     9      180.000000        0.630945         4    ;  uncertainty k = 0.172002
        29        28        27        31     9        0.000000       -0.822391         1    ;  uncertainty k = 0.769863
        29        28        27        31     9      180.000000       22.038729         2    ;  uncertainty k = 0.271382
        29        28        27        31     9        0.000000       -8.305140         3    ;  uncertainty k = 1.269833
        29        28        27        31     9      180.000000        1.298759         4    ;  uncertainty k = 0.596553
        31        30        29        51     9        0.000000        0.154897         1    ;  uncertainty k = 0.970262
        31        30        29        51     9      180.000000       11.842300         2    ;  uncertainty k = 0.614370
        31        30        29        51     9        0.000000        0.922189         3    ;  uncertainty k = 0.757887
        31        30        29        51     9      180.000000        0.630945         4    ;  uncertainty k = 0.172002
        38        11        12        40     9        0.000000        0.359872         1    ;  uncertainty k = 0.316166
        38        11        12        40     9      180.000000       -0.360044         2    ;  uncertainty k = 0.197279
        38        11        12        40     9        0.000000        0.364903         3    ;  uncertainty k = 0.128583
        38        11        12        40     9      180.000000       -0.036803         4    ;  uncertainty k = 0.081429
        39        11        12        40     9        0.000000        0.359872         1    ;  uncertainty k = 0.316166
        39        11        12        40     9      180.000000       -0.360044         2    ;  uncertainty k = 0.197279
        39        11        12        40     9        0.000000        0.364903         3    ;  uncertainty k = 0.128583
        39        11        12        40     9      180.000000       -0.036803         4    ;  uncertainty k = 0.081429
        40        12        13        41     9        0.000000        0.423998         1    ;  uncertainty k = 0.297943
        40        12        13        41     9      180.000000       -0.322771         2    ;  uncertainty k = 0.253711
        40        12        13        41     9        0.000000        0.343158         3    ;  uncertainty k = 0.128710
        40        12        13        41     9      180.000000       -0.041305         4    ;  uncertainty k = 0.061986
        40        12        13        42     9        0.000000        0.423998         1    ;  uncertainty k = 0.297943
        40        12        13        42     9      180.000000       -0.322771         2    ;  uncertainty k = 0.253711
        40        12        13        42     9        0.000000        0.343158         3    ;  uncertainty k = 0.128710
        40        12        13        42     9      180.000000       -0.041305         4    ;  uncertainty k = 0.061986
        40        12        16        45     9        0.000000        3.534566         1    ;  uncertainty k = 1.183407
        40        12        16        45     9      180.000000       -0.219654         2    ;  uncertainty k = 0.641097
        40        12        16        45     9        0.000000        0.578188         3    ;  uncertainty k = 0.579178
        40        12        16        45     9      180.000000        0.212498         4    ;  uncertainty k = 0.291708
        43        15        16        45     9        0.000000        0.424000         1    ;  uncertainty k = 0.297943
        43        15        16        45     9      180.000000       -0.322771         2    ;  uncertainty k = 0.253710
        43        15        16        45     9        0.000000        0.343158         3    ;  uncertainty k = 0.128710
        43        15        16        45     9      180.000000       -0.041305         4    ;  uncertainty k = 0.061986
        44        15        16        45     9        0.000000        0.424000         1    ;  uncertainty k = 0.297943
        44        15        16        45     9      180.000000       -0.322771         2    ;  uncertainty k = 0.253710
        44        15        16        45     9        0.000000        0.343158         3    ;  uncertainty k = 0.128710
        44        15        16        45     9      180.000000       -0.041305         4    ;  uncertainty k = 0.061986
        45        16        17        46     9        0.000000        0.359873         1    ;  uncertainty k = 0.316165
        45        16        17        46     9      180.000000       -0.360044         2    ;  uncertainty k = 0.197281
        45        16        17        46     9        0.000000        0.364903         3    ;  uncertainty k = 0.128582
        45        16        17        46     9      180.000000       -0.036803         4    ;  uncertainty k = 0.081429
        45        16        17        47     9        0.000000        0.359873         1    ;  uncertainty k = 0.316165
        45        16        17        47     9      180.000000       -0.360044         2    ;  uncertainty k = 0.197281
        45        16        17        47     9        0.000000        0.364903         3    ;  uncertainty k = 0.128582
        45        16        17        47     9      180.000000       -0.036803         4    ;  uncertainty k = 0.081429
        48        23        24        49     9        0.000000       -0.020811         1    ;  uncertainty k = 0.168739
        48        23        24        49     9      180.000000        7.628630         2    ;  uncertainty k = 0.494067
        48        23        24        49     9        0.000000       -0.419007         3    ;  uncertainty k = 0.338955
        48        23        24        49     9      180.000000        0.009969         4    ;  uncertainty k = 0.203192
        49        24        25        50     9        0.000000        0.041837         1    ;  uncertainty k = 0.123335
        49        24        25        50     9      180.000000        7.941958         2    ;  uncertainty k = 0.372063
        49        24        25        50     9        0.000000       -0.460822         3    ;  uncertainty k = 0.327229
        49        24        25        50     9      180.000000        0.152785         4    ;  uncertainty k = 0.182743
        51        29        30        52     9        0.000000       -0.942648         1    ;  uncertainty k = 1.117582
        51        29        30        52     9      180.000000        4.272735         2    ;  uncertainty k = 0.760818
        51        29        30        52     9        0.000000        1.314863         3    ;  uncertainty k = 0.353594
        51        29        30        52     9      180.000000        0.150448         4    ;  uncertainty k = 0.159865

[ dihedrals ] ; impropers
;       ai        aj        ak        al funct           phase               k        pn
         2         1         3         8     4      180.000000       29.838511         2    ;  uncertainty k = 0.044782
         2         3         8         1     4      180.000000       29.838511         2    ;  uncertainty k = 0.044782
         2         8         1         3     4      180.000000       29.838511         2    ;  uncertainty k = 0.044782
         4         3         5        10     4      180.000000       42.446331         2    ;  uncertainty k = 0.065785
         4         5        10         3     4      180.000000       42.446331         2    ;  uncertainty k = 0.065785
         4        10         3         5     4      180.000000       42.446331         2    ;  uncertainty k = 0.065785
         6         5         7         8     4      180.000000       29.838511         2    ;  uncertainty k = 0.044782
         6         7         8         5     4      180.000000       29.838511         2    ;  uncertainty k = 0.044782
         6         8         5         7     4      180.000000       29.838511         2    ;  uncertainty k = 0.044782
         8         2         6         9     4      180.000000        8.636377         2    ;  uncertainty k = 0.270562
         8         6         9         2     4      180.000000        8.636377         2    ;  uncertainty k = 0.270562
         8         9         2         6     4      180.000000        8.636377         2    ;  uncertainty k = 0.270562
        10         4        11        17     4      180.000000        0.068555         2    ;  uncertainty k = 0.100125
        10        11        17         4     4      180.000000        0.068555         2    ;  uncertainty k = 0.100125
        10        17         4        11     4      180.000000        0.068555         2    ;  uncertainty k = 0.100125
        18        14        19        20     4      180.000000       52.212280         2    ;  uncertainty k = 0.071533
        18        19        20        14     4      180.000000       52.212280         2    ;  uncertainty k = 0.071533
        18        20        14        19     4      180.000000       52.212280         2    ;  uncertainty k = 0.071533
        20        18        21        26     4      180.000000        9.307072         2    ;  uncertainty k = 0.434424
        20        21        26        18     4      180.000000        9.307072         2    ;  uncertainty k = 0.434424
        20        26        18        21     4      180.000000        9.307072         2    ;  uncertainty k = 0.434424
        21        20        22        23     4      180.000000       15.115266         2    ;  uncertainty k = 0.210077
        21        22        23        20     4      180.000000       15.115266         2    ;  uncertainty k = 0.210077
        21        23        20        22     4      180.000000       15.115266         2    ;  uncertainty k = 0.210077
        23        21        24        48     4      180.000000        2.461870         2    ;  uncertainty k = 0.103991
        23        24        48        21     4      180.000000        2.461870         2    ;  uncertainty k = 0.103991
        23        48        21        24     4      180.000000        2.461870         2    ;  uncertainty k = 0.103991
        24        23        25        49     4      180.000000        4.937369         2    ;  uncertainty k = 0.112088
        24        25        49        23     4      180.000000        4.937369         2    ;  uncertainty k = 0.112088
        24        49        23        25     4      180.000000        4.937369         2    ;  uncertainty k = 0.112088
        25        24        26        50     4      180.000000        2.847064         2    ;  uncertainty k = 0.193191
        25        26        50        24     4      180.000000        2.847064         2    ;  uncertainty k = 0.193191
        25        50        24        26     4      180.000000        2.847064         2    ;  uncertainty k = 0.193191
        26        20        25        27     4      180.000000       12.584197         2    ;  uncertainty k = 0.129690
        26        25        27        20     4      180.000000       12.584197         2    ;  uncertainty k = 0.129690
        26        27        20        25     4      180.000000       12.584197         2    ;  uncertainty k = 0.129690
        29        28        30        51     4      180.000000        0.414726         2    ;  uncertainty k = 0.408832
        29        30        51        28     4      180.000000        0.414726         2    ;  uncertainty k = 0.408832
        29        51        28        30     4      180.000000        0.414726         2    ;  uncertainty k = 0.408832
        30        29        31        52     4      180.000000        0.414726         2    ;  uncertainty k = 0.408832
        30        31        52        29     4      180.000000        0.414726         2    ;  uncertainty k = 0.408832
        30        52        29        31     4      180.000000        0.414726         2    ;  uncertainty k = 0.408832

[ pairs ]
;       ai        aj funct
         1         4     1
         1         6     1
         1         9     1
         2         5     1
         2         7     1
         2        10     1
         3         6     1
         3         9     1
         3        11     1
         3        17     1
         3        32     1
         3        33     1
         3        34     1
         4         7     1
         4         8     1
         4        12     1
         4        16     1
         4        38     1
         4        39     1
         4        46     1
         4        47     1
         5         9     1
         5        11     1
         5        17     1
         5        35     1
         5        36     1
         5        37     1
         6        10     1
         7         9     1
         8        32     1
         8        33     1
         8        34     1
         8        35     1
         8        36     1
         8        37     1
        10        13     1
        10        15     1
        10        40     1
        10        45     1
        11        14     1
        11        15     1
        11        41     1
        11        42     1
        11        45     1
        11        46     1
        11        47     1
        12        18     1
        12        43     1
        12        44     1
        12        46     1
        12        47     1
        13        17     1
        13        19     1
        13        20     1
        13        38     1
        13        39     1
        13        43     1
        13        44     1
        13        45     1
        14        17     1
        14        21     1
        14        26     1
        14        40     1
        14        45     1
        15        19     1
        15        20     1
        15        40     1
        15        41     1
        15        42     1
        15        46     1
        15        47     1
        16        18     1
        16        38     1
        16        39     1
        16        41     1
        16        42     1
        17        38     1
        17        39     1
        17        40     1
        17        43     1
        17        44     1
        18        22     1
        18        23     1
        18        25     1
        18        27     1
        18        41     1
        18        42     1
        18        43     1
        18        44     1
        19        21     1
        19        26     1
        20        24     1
        20        28     1
        20        31     1
        20        48     1
        20        50     1
        21        25     1
        21        27     1
        21        49     1
        22        24     1
        22        26     1
        22        48     1
        23        26     1
        23        50     1
        24        27     1
        25        28     1
        25        31     1
        25        48     1
        26        29     1
        26        30     1
        26        49     1
        27        50     1
        27        51     1
        27        52     1
        28        52     1
        31        51     1
        38        40     1
        39        40     1
        40        41     1
        40        42     1
        40        45     1
        43        45     1
        44        45     1
        45        46     1
        45        47     1
        48        49     1
        49        50     1
        51        52     1
