; ITP file created by ByteFF-joint-25, 2025-07-14 11:28:43.177565

[ atomtypes ]
;name           bonded.type        at.num        mass        charge   ptype           sigma         epsilon
 c0bf                                   6      0.0000       0.00000       A     3.39770e-01     4.50860e-01    ;  uncertainty sigma = 0.000008, epsilon = 0.000402
 c1bf                                   6      0.0000       0.00000       A     3.31524e-01     4.13274e-01    ;  uncertainty sigma = 0.000010, epsilon = 0.000966
 o2bf                                   8      0.0000       0.00000       A     3.04808e-01     6.12327e-01    ;  uncertainty sigma = 0.000012, epsilon = 0.001122
 n3bf                                   7      0.0000       0.00000       A     3.27004e-01     4.91007e-01    ;  uncertainty sigma = 0.000016, epsilon = 0.001740
 c4bf                                   6      0.0000       0.00000       A     3.31571e-01     4.13322e-01    ;  uncertainty sigma = 0.000012, epsilon = 0.000898
 c5bf                                   6      0.0000       0.00000       A     3.31539e-01     4.13518e-01    ;  uncertainty sigma = 0.000006, epsilon = 0.000526
 c6bf                                   6      0.0000       0.00000       A     3.31528e-01     4.13252e-01    ;  uncertainty sigma = 0.000014, epsilon = 0.000848
 c7bf                                   6      0.0000       0.00000       A     3.31567e-01     4.13485e-01    ;  uncertainty sigma = 0.000015, epsilon = 0.001983
 c8bf                                   6      0.0000       0.00000       A     3.31548e-01     4.13025e-01    ;  uncertainty sigma = 0.000025, epsilon = 0.001630
 c9bf                                   6      0.0000       0.00000       A     3.31463e-01     4.13926e-01    ;  uncertainty sigma = 0.000023, epsilon = 0.000968
 c10bf                                  6      0.0000       0.00000       A     3.31526e-01     4.13190e-01    ;  uncertainty sigma = 0.000023, epsilon = 0.001728
 o11bf                                  8      0.0000       0.00000       A     3.04853e-01     6.12088e-01    ;  uncertainty sigma = 0.000030, epsilon = 0.001066
 n12bf                                  7      0.0000       0.00000       A     3.18079e-01     6.84112e-01    ;  uncertainty sigma = 0.000014, epsilon = 0.001025
 c13bf                                  6      0.0000       0.00000       A     3.39784e-01     4.51219e-01    ;  uncertainty sigma = 0.000006, epsilon = 0.000696
 c14bf                                  6      0.0000       0.00000       A     3.39776e-01     4.51373e-01    ;  uncertainty sigma = 0.000009, epsilon = 0.000969
 c15bf                                  6      0.0000       0.00000       A     3.39774e-01     4.50953e-01    ;  uncertainty sigma = 0.000012, epsilon = 0.001229
 n16bf                                  7      0.0000       0.00000       A     3.18950e-01     8.99076e-01    ;  uncertainty sigma = 0.000052, epsilon = 0.003577
 c17bf                                  6      0.0000       0.00000       A     3.39774e-01     4.50953e-01    ;  uncertainty sigma = 0.000012, epsilon = 0.001229
 c18bf                                  6      0.0000       0.00000       A     3.39776e-01     4.51373e-01    ;  uncertainty sigma = 0.000009, epsilon = 0.000969
 c19bf                                  6      0.0000       0.00000       A     3.39784e-01     4.51219e-01    ;  uncertainty sigma = 0.000006, epsilon = 0.000696
 c20bf                                  6      0.0000       0.00000       A     3.31545e-01     4.13196e-01    ;  uncertainty sigma = 0.000018, epsilon = 0.000667
 n21bf                                  7      0.0000       0.00000       A     3.38407e-01     3.93685e-01    ;  uncertainty sigma = 0.000013, epsilon = 0.000791
 c22bf                                  6      0.0000       0.00000       A     3.31511e-01     4.13145e-01    ;  uncertainty sigma = 0.000011, epsilon = 0.000579
 c23bf                                  6      0.0000       0.00000       A     3.39773e-01     4.50930e-01    ;  uncertainty sigma = 0.000007, epsilon = 0.000592
 c24bf                                  6      0.0000       0.00000       A     3.31523e-01     4.13243e-01    ;  uncertainty sigma = 0.000013, epsilon = 0.000737
 c25bf                                  6      0.0000       0.00000       A     3.31511e-01     4.13145e-01    ;  uncertainty sigma = 0.000011, epsilon = 0.000579
 c26bf                                  6      0.0000       0.00000       A     3.39773e-01     4.50930e-01    ;  uncertainty sigma = 0.000007, epsilon = 0.000592
 n27bf                                  7      0.0000       0.00000       A     3.38407e-01     3.93685e-01    ;  uncertainty sigma = 0.000013, epsilon = 0.000791
 n28bf                                  7      0.0000       0.00000       A     3.20559e-01     8.53662e-01    ;  uncertainty sigma = 0.000029, epsilon = 0.003164
 n29bf                                  7      0.0000       0.00000       A     3.38413e-01     3.93694e-01    ;  uncertainty sigma = 0.000010, epsilon = 0.000693
 c30bf                                  6      0.0000       0.00000       A     3.31537e-01     4.13587e-01    ;  uncertainty sigma = 0.000007, epsilon = 0.000835
 c31bf                                  6      0.0000       0.00000       A     3.31537e-01     4.13587e-01    ;  uncertainty sigma = 0.000007, epsilon = 0.000835
 n32bf                                  7      0.0000       0.00000       A     3.38413e-01     3.93694e-01    ;  uncertainty sigma = 0.000010, epsilon = 0.000693
 h33bf                                  1      0.0000       0.00000       A     2.60030e-01     8.66767e-02    ;  uncertainty sigma = 0.000008, epsilon = 0.000511
 h34bf                                  1      0.0000       0.00000       A     2.60030e-01     8.66767e-02    ;  uncertainty sigma = 0.000008, epsilon = 0.000511
 h35bf                                  1      0.0000       0.00000       A     2.60030e-01     8.66767e-02    ;  uncertainty sigma = 0.000008, epsilon = 0.000511
 h36bf                                  1      0.0000       0.00000       A     1.10612e-01     4.15508e-02    ;  uncertainty sigma = 0.000061, epsilon = 0.001009
 h37bf                                  1      0.0000       0.00000       A     2.62564e-01     6.70544e-02    ;  uncertainty sigma = 0.000014, epsilon = 0.000426
 h38bf                                  1      0.0000       0.00000       A     2.62561e-01     6.72206e-02    ;  uncertainty sigma = 0.000016, epsilon = 0.000556
 h39bf                                  1      0.0000       0.00000       A     2.62567e-01     6.70916e-02    ;  uncertainty sigma = 0.000011, epsilon = 0.000669
 h40bf                                  1      0.0000       0.00000       A     2.42194e-01     8.66543e-02    ;  uncertainty sigma = 0.000021, epsilon = 0.000863
 h41bf                                  1      0.0000       0.00000       A     2.42194e-01     8.66543e-02    ;  uncertainty sigma = 0.000021, epsilon = 0.000863
 h42bf                                  1      0.0000       0.00000       A     2.59994e-01     8.68892e-02    ;  uncertainty sigma = 0.000026, epsilon = 0.000553
 h43bf                                  1      0.0000       0.00000       A     2.42199e-01     8.66323e-02    ;  uncertainty sigma = 0.000024, epsilon = 0.001250
 h44bf                                  1      0.0000       0.00000       A     2.42199e-01     8.66323e-02    ;  uncertainty sigma = 0.000024, epsilon = 0.001250
 h45bf                                  1      0.0000       0.00000       A     2.42199e-01     8.66324e-02    ;  uncertainty sigma = 0.000024, epsilon = 0.001250
 h46bf                                  1      0.0000       0.00000       A     2.42199e-01     8.66324e-02    ;  uncertainty sigma = 0.000024, epsilon = 0.001250
 h47bf                                  1      0.0000       0.00000       A     2.59994e-01     8.68893e-02    ;  uncertainty sigma = 0.000026, epsilon = 0.000553
 h48bf                                  1      0.0000       0.00000       A     2.42194e-01     8.66544e-02    ;  uncertainty sigma = 0.000021, epsilon = 0.000864
 h49bf                                  1      0.0000       0.00000       A     2.42194e-01     8.66544e-02    ;  uncertainty sigma = 0.000021, epsilon = 0.000864
 h50bf                                  1      0.0000       0.00000       A     2.60034e-01     8.66333e-02    ;  uncertainty sigma = 0.000007, epsilon = 0.000537
 h51bf                                  1      0.0000       0.00000       A     2.60034e-01     8.66333e-02    ;  uncertainty sigma = 0.000007, epsilon = 0.000537
 h52bf                                  1      0.0000       0.00000       A     2.60034e-01     8.66333e-02    ;  uncertainty sigma = 0.000007, epsilon = 0.000537
 h53bf                                  1      0.0000       0.00000       A     2.62580e-01     6.71311e-02    ;  uncertainty sigma = 0.000016, epsilon = 0.000304
 h54bf                                  1      0.0000       0.00000       A     2.60034e-01     8.66332e-02    ;  uncertainty sigma = 0.000007, epsilon = 0.000537
 h55bf                                  1      0.0000       0.00000       A     2.60034e-01     8.66332e-02    ;  uncertainty sigma = 0.000007, epsilon = 0.000537
 h56bf                                  1      0.0000       0.00000       A     2.60034e-01     8.66333e-02    ;  uncertainty sigma = 0.000007, epsilon = 0.000537
 h57bf                                  1      0.0000       0.00000       A     2.53604e-01     6.70807e-02    ;  uncertainty sigma = 0.000028, epsilon = 0.000600
 h58bf                                  1      0.0000       0.00000       A     2.53604e-01     6.70806e-02    ;  uncertainty sigma = 0.000028, epsilon = 0.000600

[ moleculetype ]
;name             nrexcl
 MOL                   3

[ atoms ]
;       nr            type      resi   res      atom      cgnr      charge          mass ; qtot
         1            c0bf         1   UNL        c0         1    -0.17686       12.0110 ; qtot   -0.177
         2            c1bf         1   UNL        c1         2     0.67181       12.0110 ; qtot    0.495
         3            o2bf         1   UNL        o2         3    -0.58523       15.9990 ; qtot   -0.090
         4            n3bf         1   UNL        n3         4    -0.48417       14.0070 ; qtot   -0.574
         5            c4bf         1   UNL        c4         5     0.08369       12.0110 ; qtot   -0.491
         6            c5bf         1   UNL        c5         6    -0.15359       12.0110 ; qtot   -0.644
         7            c6bf         1   UNL        c6         7    -0.08669       12.0110 ; qtot   -0.731
         8            c7bf         1   UNL        c7         8     0.02422       12.0110 ; qtot   -0.707
         9            c8bf         1   UNL        c8         9    -0.09412       12.0110 ; qtot   -0.801
        10            c9bf         1   UNL        c9        10    -0.13702       12.0110 ; qtot   -0.938
        11           c10bf         1   UNL       c10        11     0.69192       12.0110 ; qtot   -0.246
        12           o11bf         1   UNL       o11        12    -0.58915       15.9990 ; qtot   -0.835
        13           n12bf         1   UNL       n12        13    -0.47145       14.0070 ; qtot   -1.307
        14           c13bf         1   UNL       c13        14     0.10795       12.0110 ; qtot   -1.199
        15           c14bf         1   UNL       c14        15    -0.09743       12.0110 ; qtot   -1.296
        16           c15bf         1   UNL       c15        16     0.23390       12.0110 ; qtot   -1.062
        17           n16bf         1   UNL       n16        17    -0.79085       14.0070 ; qtot   -1.853
        18           c17bf         1   UNL       c17        18     0.23390       12.0110 ; qtot   -1.619
        19           c18bf         1   UNL       c18        19    -0.09743       12.0110 ; qtot   -1.717
        20           c19bf         1   UNL       c19        20     0.10795       12.0110 ; qtot   -1.609
        21           c20bf         1   UNL       c20        21     0.90706       12.0110 ; qtot   -0.702
        22           n21bf         1   UNL       n21        22    -0.77862       14.0070 ; qtot   -1.480
        23           c22bf         1   UNL       c22        23     0.48649       12.0110 ; qtot   -0.994
        24           c23bf         1   UNL       c23        24    -0.15162       12.0110 ; qtot   -1.145
        25           c24bf         1   UNL       c24        25    -0.41183       12.0110 ; qtot   -1.557
        26           c25bf         1   UNL       c25        26     0.48649       12.0110 ; qtot   -1.071
        27           c26bf         1   UNL       c26        27    -0.15162       12.0110 ; qtot   -1.222
        28           n27bf         1   UNL       n27        28    -0.77862       14.0070 ; qtot   -2.001
        29           n28bf         1   UNL       n28        29     0.30825       14.0070 ; qtot   -1.693
        30           n29bf         1   UNL       n29        30    -0.47455       14.0070 ; qtot   -2.167
        31           c30bf         1   UNL       c30        31     0.20275       12.0110 ; qtot   -1.964
        32           c31bf         1   UNL       c31        32     0.20275       12.0110 ; qtot   -1.762
        33           n32bf         1   UNL       n32        33    -0.47455       14.0070 ; qtot   -2.236
        34           h33bf         1   UNL       h33        34     0.06539        1.0080 ; qtot   -2.171
        35           h34bf         1   UNL       h34        35     0.06539        1.0080 ; qtot   -2.105
        36           h35bf         1   UNL       h35        36     0.06539        1.0080 ; qtot   -2.040
        37           h36bf         1   UNL       h36        37     0.31847        1.0080 ; qtot   -1.722
        38           h37bf         1   UNL       h37        38     0.15845        1.0080 ; qtot   -1.563
        39           h38bf         1   UNL       h38        39     0.16017        1.0080 ; qtot   -1.403
        40           h39bf         1   UNL       h39        40     0.17028        1.0080 ; qtot   -1.233
        41           h40bf         1   UNL       h40        41     0.05981        1.0080 ; qtot   -1.173
        42           h41bf         1   UNL       h41        42     0.05981        1.0080 ; qtot   -1.113
        43           h42bf         1   UNL       h42        43     0.07237        1.0080 ; qtot   -1.041
        44           h43bf         1   UNL       h43        44     0.05891        1.0080 ; qtot   -0.982
        45           h44bf         1   UNL       h44        45     0.05891        1.0080 ; qtot   -0.923
        46           h45bf         1   UNL       h45        46     0.05891        1.0080 ; qtot   -0.864
        47           h46bf         1   UNL       h46        47     0.05891        1.0080 ; qtot   -0.805
        48           h47bf         1   UNL       h47        48     0.07237        1.0080 ; qtot   -0.733
        49           h48bf         1   UNL       h48        49     0.05981        1.0080 ; qtot   -0.673
        50           h49bf         1   UNL       h49        50     0.05981        1.0080 ; qtot   -0.613
        51           h50bf         1   UNL       h50        51     0.05868        1.0080 ; qtot   -0.554
        52           h51bf         1   UNL       h51        52     0.05868        1.0080 ; qtot   -0.496
        53           h52bf         1   UNL       h52        53     0.05868        1.0080 ; qtot   -0.437
        54           h53bf         1   UNL       h53        54     0.15114        1.0080 ; qtot   -0.286
        55           h54bf         1   UNL       h54        55     0.05868        1.0080 ; qtot   -0.227
        56           h55bf         1   UNL       h55        56     0.05868        1.0080 ; qtot   -0.169
        57           h56bf         1   UNL       h56        57     0.05868        1.0080 ; qtot   -0.110
        58           h57bf         1   UNL       h57        58     0.05496        1.0080 ; qtot   -0.055
        59           h58bf         1   UNL       h58        59     0.05493        1.0080 ; qtot    0.000

[ bonds ]
;       ai        aj funct               r               k
         1         2     1        0.151901   218452.043652    ;  uncertainty r = 0.000052, k = 2.880664
         1        34     1        0.109463   319552.693555    ;  uncertainty r = 0.000017, k = 2.209062
         1        35     1        0.109463   319552.693555    ;  uncertainty r = 0.000017, k = 2.209062
         1        36     1        0.109463   319552.693555    ;  uncertainty r = 0.000017, k = 2.209062
         2         3     1        0.122791   753081.183594    ;  uncertainty r = 0.000037, k = 7.561061
         2         4     1        0.137979   320033.557324    ;  uncertainty r = 0.000049, k = 21.972876
         4         5     1        0.141101   319876.606250    ;  uncertainty r = 0.000095, k = 7.673508
         4        37     1        0.101547   436585.945996    ;  uncertainty r = 0.000068, k = 6.248958
         5         6     1        0.139974   358871.287061    ;  uncertainty r = 0.000085, k = 3.033777
         5        10     1        0.139569   353054.776270    ;  uncertainty r = 0.000103, k = 4.533254
         6         7     1        0.138516   363937.594189    ;  uncertainty r = 0.000075, k = 4.864587
         6        38     1        0.108689   335699.245996    ;  uncertainty r = 0.000023, k = 1.487637
         7         8     1        0.139345   338855.147510    ;  uncertainty r = 0.000105, k = 6.460083
         7        39     1        0.108601   332149.996387    ;  uncertainty r = 0.000024, k = 2.281018
         8         9     1        0.139397   321319.606152    ;  uncertainty r = 0.000098, k = 6.110824
         8        29     1        0.140772   316712.915918    ;  uncertainty r = 0.000102, k = 4.239512
         9        10     1        0.138906   340856.005566    ;  uncertainty r = 0.000162, k = 19.079788
         9        11     1        0.150716   266257.818848    ;  uncertainty r = 0.000128, k = 22.778676
        10        40     1        0.108677   332433.637061    ;  uncertainty r = 0.000061, k = 3.873771
        11        12     1        0.123628   760111.856250    ;  uncertainty r = 0.000071, k = 7.154363
        11        13     1        0.135525   332809.951904    ;  uncertainty r = 0.000072, k = 11.954977
        13        14     1        0.147066   239433.741309    ;  uncertainty r = 0.000053, k = 14.441698
        13        20     1        0.147066   239433.741309    ;  uncertainty r = 0.000053, k = 14.441748
        14        15     1        0.153480   216617.074658    ;  uncertainty r = 0.000023, k = 7.412755
        14        41     1        0.109439   307434.875488    ;  uncertainty r = 0.000026, k = 1.171535
        14        42     1        0.109439   307434.875488    ;  uncertainty r = 0.000026, k = 1.171535
        15        16     1        0.153378   218045.467334    ;  uncertainty r = 0.000067, k = 7.088229
        15        19     1        0.154451   200722.535181    ;  uncertainty r = 0.000080, k = 20.796812
        15        43     1        0.109350   305021.261133    ;  uncertainty r = 0.000029, k = 3.829687
        16        17     1        0.146381   223708.423486    ;  uncertainty r = 0.000058, k = 14.342784
        16        44     1        0.109551   306518.450781    ;  uncertainty r = 0.000069, k = 2.534279
        16        45     1        0.109551   306518.450781    ;  uncertainty r = 0.000069, k = 2.534279
        17        18     1        0.146381   223708.423486    ;  uncertainty r = 0.000058, k = 14.342737
        17        21     1        0.136652   318374.973145    ;  uncertainty r = 0.000092, k = 21.200732
        18        19     1        0.153378   218045.441797    ;  uncertainty r = 0.000067, k = 7.088210
        18        46     1        0.109551   306518.450781    ;  uncertainty r = 0.000069, k = 2.534269
        18        47     1        0.109551   306518.450781    ;  uncertainty r = 0.000069, k = 2.534269
        19        20     1        0.153480   216617.049121    ;  uncertainty r = 0.000023, k = 7.412708
        19        48     1        0.109350   305021.261133    ;  uncertainty r = 0.000029, k = 3.829675
        20        49     1        0.109439   307434.875488    ;  uncertainty r = 0.000026, k = 1.171524
        20        50     1        0.109439   307434.875488    ;  uncertainty r = 0.000026, k = 1.171524
        21        22     1        0.135351   495763.395996    ;  uncertainty r = 0.000102, k = 13.751660
        21        28     1        0.135351   495763.395996    ;  uncertainty r = 0.000102, k = 13.751690
        22        23     1        0.134238   464612.668164    ;  uncertainty r = 0.000041, k = 6.904050
        23        24     1        0.150631   258312.687842    ;  uncertainty r = 0.000036, k = 5.578428
        23        25     1        0.140287   430446.058789    ;  uncertainty r = 0.000066, k = 4.969267
        24        51     1        0.109444   310537.583203    ;  uncertainty r = 0.000015, k = 1.598101
        24        52     1        0.109444   310537.583203    ;  uncertainty r = 0.000015, k = 1.598101
        24        53     1        0.109444   310537.583203    ;  uncertainty r = 0.000015, k = 1.598101
        25        26     1        0.140287   430446.058789    ;  uncertainty r = 0.000066, k = 4.969234
        25        54     1        0.108737   344393.201660    ;  uncertainty r = 0.000026, k = 3.476266
        26        27     1        0.150631   258312.662305    ;  uncertainty r = 0.000036, k = 5.578455
        26        28     1        0.134238   464612.770313    ;  uncertainty r = 0.000041, k = 6.904054
        27        55     1        0.109444   310537.608740    ;  uncertainty r = 0.000015, k = 1.598090
        27        56     1        0.109444   310537.608740    ;  uncertainty r = 0.000015, k = 1.598090
        27        57     1        0.109444   310537.608740    ;  uncertainty r = 0.000015, k = 1.598090
        29        30     1        0.134382   229492.272314    ;  uncertainty r = 0.000067, k = 8.378589
        29        33     1        0.134382   229492.272314    ;  uncertainty r = 0.000067, k = 8.378589
        30        31     1        0.132965   463550.937305    ;  uncertainty r = 0.000052, k = 7.730552
        31        32     1        0.141781   249584.001709    ;  uncertainty r = 0.000103, k = 15.332670
        31        58     1        0.108418   339910.136572    ;  uncertainty r = 0.000037, k = 1.124299
        32        33     1        0.132965   463550.937305    ;  uncertainty r = 0.000052, k = 7.730554
        32        59     1        0.108418   339910.136572    ;  uncertainty r = 0.000037, k = 1.124299

[ angles ]
;       ai        aj        ak funct           theta             cth
         1         2         3     1      124.285179      555.263201    ;  uncertainty theta = 0.002325, k = 0.125247
         1         2         4     1      113.192871      515.182899    ;  uncertainty theta = 0.000469, k = 0.112994
         2         1        34     1      108.453934      371.080311    ;  uncertainty theta = 0.001739, k = 0.079024
         2         1        35     1      108.453934      371.080311    ;  uncertainty theta = 0.001739, k = 0.079024
         2         1        36     1      108.453934      371.080311    ;  uncertainty theta = 0.001739, k = 0.079024
         2         4         5     1      118.114578      430.171490    ;  uncertainty theta = 0.002372, k = 0.157875
         2         4        37     1      114.707191      338.590149    ;  uncertainty theta = 0.004249, k = 0.154463
         3         2         4     1      121.458351      686.288682    ;  uncertainty theta = 0.002563, k = 0.171288
         4         5         6     1      120.463547      523.728925    ;  uncertainty theta = 0.004957, k = 0.085609
         4         5        10     1      119.588966      501.352129    ;  uncertainty theta = 0.005608, k = 0.093802
         5         4        37     1      113.387009      311.210665    ;  uncertainty theta = 0.003456, k = 0.194814
         5         6         7     1      119.006813      497.234589    ;  uncertainty theta = 0.002138, k = 0.113674
         5         6        38     1      119.169029      268.160365    ;  uncertainty theta = 0.002071, k = 0.107375
         5        10         9     1      121.077164      480.991519    ;  uncertainty theta = 0.002756, k = 0.206799
         5        10        40     1      119.400833      277.419259    ;  uncertainty theta = 0.003407, k = 0.135342
         6         5        10     1      118.456055      379.345013    ;  uncertainty theta = 0.007266, k = 0.241048
         6         7         8     1      121.243271      502.690082    ;  uncertainty theta = 0.002197, k = 0.115843
         6         7        39     1      120.453819      280.180587    ;  uncertainty theta = 0.001575, k = 0.056329
         7         6        38     1      120.499184      296.225361    ;  uncertainty theta = 0.002496, k = 0.093943
         7         8         9     1      124.827599      390.293762    ;  uncertainty theta = 0.007246, k = 0.192874
         7         8        29     1      118.416992      454.191185    ;  uncertainty theta = 0.003888, k = 0.142176
         8         7        39     1      117.886429      262.412489    ;  uncertainty theta = 0.003787, k = 0.180872
         8         9        10     1      122.246315      445.600597    ;  uncertainty theta = 0.007706, k = 0.169119
         8         9        11     1      121.619583      359.413044    ;  uncertainty theta = 0.008918, k = 0.405809
         8        29        30     1      116.530380      436.402736    ;  uncertainty theta = 0.006472, k = 0.167902
         8        29        33     1      116.530380      436.402736    ;  uncertainty theta = 0.006472, k = 0.167902
         9         8        29     1      116.507607      421.567017    ;  uncertainty theta = 0.007334, k = 0.379081
         9        10        40     1      119.852036      270.184756    ;  uncertainty theta = 0.002655, k = 0.141743
         9        11        12     1      124.816269      485.782025    ;  uncertainty theta = 0.002901, k = 0.316343
         9        11        13     1      112.519821      380.351431    ;  uncertainty theta = 0.002594, k = 0.193291
        10         9        11     1      120.652054      376.047853    ;  uncertainty theta = 0.008135, k = 0.122542
        11        13        14     1      118.040024      360.395010    ;  uncertainty theta = 0.004423, k = 0.077935
        11        13        20     1      118.040024      360.395106    ;  uncertainty theta = 0.004423, k = 0.077935
        12        11        13     1      124.755356      736.014223    ;  uncertainty theta = 0.002003, k = 0.114107
        13        14        15     1      106.107704      800.252694    ;  uncertainty theta = 0.003120, k = 0.175971
        13        14        41     1      109.290794      458.934639    ;  uncertainty theta = 0.001401, k = 0.102756
        13        14        42     1      109.290794      458.934639    ;  uncertainty theta = 0.001401, k = 0.102756
        13        20        19     1      106.107704      800.252694    ;  uncertainty theta = 0.003120, k = 0.175972
        13        20        49     1      109.290787      458.934734    ;  uncertainty theta = 0.001401, k = 0.102756
        13        20        50     1      109.290787      458.934734    ;  uncertainty theta = 0.001401, k = 0.102756
        14        13        20     1      114.291725      544.244321    ;  uncertainty theta = 0.003124, k = 0.147477
        14        15        16     1      113.001526      495.885112    ;  uncertainty theta = 0.002967, k = 0.272650
        14        15        19     1      106.536072      683.535654    ;  uncertainty theta = 0.002057, k = 0.120116
        14        15        43     1      108.976547      381.109276    ;  uncertainty theta = 0.002391, k = 0.150517
        15        14        41     1      109.812805      398.157914    ;  uncertainty theta = 0.002056, k = 0.096133
        15        14        42     1      109.812805      398.157914    ;  uncertainty theta = 0.002056, k = 0.096133
        15        16        17     1      105.543358      834.662608    ;  uncertainty theta = 0.001817, k = 0.093259
        15        16        44     1      109.942749      401.681014    ;  uncertainty theta = 0.001744, k = 0.042629
        15        16        45     1      109.942749      401.681014    ;  uncertainty theta = 0.001744, k = 0.042629
        15        19        18     1      106.407143      696.228428    ;  uncertainty theta = 0.000820, k = 0.121960
        15        19        20     1      106.536072      683.535654    ;  uncertainty theta = 0.002057, k = 0.120116
        15        19        48     1      109.787766      408.249893    ;  uncertainty theta = 0.001833, k = 0.098421
        16        15        19     1      106.407143      696.228364    ;  uncertainty theta = 0.000820, k = 0.121960
        16        15        43     1      108.909218      387.529561    ;  uncertainty theta = 0.002428, k = 0.196424
        16        17        18     1      112.639450      489.228386    ;  uncertainty theta = 0.009972, k = 0.334405
        16        17        21     1      113.699562      433.285645    ;  uncertainty theta = 0.003934, k = 0.215172
        17        16        44     1      108.562340      456.415882    ;  uncertainty theta = 0.001202, k = 0.062362
        17        16        45     1      108.562340      456.415882    ;  uncertainty theta = 0.001202, k = 0.062362
        17        18        19     1      105.543358      834.662672    ;  uncertainty theta = 0.001817, k = 0.093259
        17        18        46     1      108.562340      456.415882    ;  uncertainty theta = 0.001202, k = 0.062362
        17        18        47     1      108.562340      456.415882    ;  uncertainty theta = 0.001202, k = 0.062362
        17        21        22     1      119.537033      549.082071    ;  uncertainty theta = 0.007399, k = 0.202208
        17        21        28     1      119.537033      549.082007    ;  uncertainty theta = 0.007399, k = 0.202208
        18        17        21     1      113.699562      433.285645    ;  uncertainty theta = 0.003934, k = 0.215172
        18        19        20     1      113.001526      495.885112    ;  uncertainty theta = 0.002967, k = 0.272650
        18        19        48     1      108.909218      387.529561    ;  uncertainty theta = 0.002428, k = 0.196423
        19        15        43     1      109.787766      408.249925    ;  uncertainty theta = 0.001833, k = 0.098421
        19        18        46     1      109.942749      401.681014    ;  uncertainty theta = 0.001744, k = 0.042629
        19        18        47     1      109.942749      401.681014    ;  uncertainty theta = 0.001744, k = 0.042629
        19        20        49     1      109.812805      398.157914    ;  uncertainty theta = 0.002056, k = 0.096133
        19        20        50     1      109.812805      398.157914    ;  uncertainty theta = 0.002056, k = 0.096133
        20        19        48     1      108.976547      381.109245    ;  uncertainty theta = 0.002391, k = 0.150517
        21        22        23     1      115.347641      408.898855    ;  uncertainty theta = 0.006383, k = 0.283100
        21        28        26     1      115.347641      408.898887    ;  uncertainty theta = 0.006383, k = 0.283100
        22        21        28     1      129.113480      717.709733    ;  uncertainty theta = 0.004729, k = 0.118642
        22        23        24     1      118.694351      504.935496    ;  uncertainty theta = 0.002079, k = 0.183388
        22        23        25     1      120.465759      656.141040    ;  uncertainty theta = 0.004510, k = 0.102828
        23        24        51     1      108.943436      385.594391    ;  uncertainty theta = 0.001293, k = 0.046207
        23        24        52     1      108.943436      385.594391    ;  uncertainty theta = 0.001293, k = 0.046207
        23        24        53     1      108.943436      385.594391    ;  uncertainty theta = 0.001293, k = 0.046207
        23        25        26     1      116.498535      460.598349    ;  uncertainty theta = 0.005053, k = 0.122034
        23        25        54     1      121.718430      273.369457    ;  uncertainty theta = 0.001159, k = 0.085455
        24        23        25     1      122.372597      418.636154    ;  uncertainty theta = 0.002202, k = 0.178974
        25        26        27     1      122.372597      418.636154    ;  uncertainty theta = 0.002202, k = 0.178974
        25        26        28     1      120.465759      656.141103    ;  uncertainty theta = 0.004510, k = 0.102828
        26        25        54     1      121.718430      273.369457    ;  uncertainty theta = 0.001159, k = 0.085456
        26        27        55     1      108.943436      385.594391    ;  uncertainty theta = 0.001293, k = 0.046207
        26        27        56     1      108.943436      385.594391    ;  uncertainty theta = 0.001293, k = 0.046207
        26        27        57     1      108.943436      385.594391    ;  uncertainty theta = 0.001293, k = 0.046207
        27        26        28     1      118.694351      504.935560    ;  uncertainty theta = 0.002079, k = 0.183389
        29        30        31     1      105.335411      921.283525    ;  uncertainty theta = 0.004612, k = 0.162990
        29        33        32     1      105.335411      921.283525    ;  uncertainty theta = 0.004612, k = 0.162990
        30        29        33     1      113.886673     1161.037144    ;  uncertainty theta = 0.004145, k = 0.186801
        30        31        32     1      108.874619      885.375668    ;  uncertainty theta = 0.003815, k = 0.097431
        30        31        58     1      119.790878      274.219077    ;  uncertainty theta = 0.003825, k = 0.115834
        31        32        33     1      108.874619      885.375668    ;  uncertainty theta = 0.003815, k = 0.097431
        31        32        59     1      127.065445      242.460712    ;  uncertainty theta = 0.004115, k = 0.077998
        32        31        58     1      127.065445      242.460712    ;  uncertainty theta = 0.004115, k = 0.077998
        33        32        59     1      119.790878      274.219045    ;  uncertainty theta = 0.003825, k = 0.115834
        34         1        35     1      106.841331      312.630975    ;  uncertainty theta = 0.000780, k = 0.022777
        34         1        36     1      106.841331      312.630975    ;  uncertainty theta = 0.000780, k = 0.022777
        35         1        36     1      106.841331      312.630975    ;  uncertainty theta = 0.000780, k = 0.022777
        41        14        42     1      105.371445      309.387890    ;  uncertainty theta = 0.003860, k = 0.079571
        44        16        45     1      105.122986      312.324913    ;  uncertainty theta = 0.002382, k = 0.114503
        46        18        47     1      105.123001      312.324913    ;  uncertainty theta = 0.002382, k = 0.114503
        49        20        50     1      105.371445      309.387890    ;  uncertainty theta = 0.003860, k = 0.079571
        51        24        52     1      107.153793      312.530199    ;  uncertainty theta = 0.001242, k = 0.032267
        51        24        53     1      107.153793      312.530199    ;  uncertainty theta = 0.001242, k = 0.032267
        52        24        53     1      107.153793      312.530199    ;  uncertainty theta = 0.001242, k = 0.032267
        55        27        56     1      107.153793      312.530167    ;  uncertainty theta = 0.001242, k = 0.032267
        55        27        57     1      107.153793      312.530167    ;  uncertainty theta = 0.001242, k = 0.032267
        56        27        57     1      107.153793      312.530167    ;  uncertainty theta = 0.001242, k = 0.032267

[ dihedrals ] ; propers for gromacs 4.5 or higher, use funct 9
;       ai        aj        ak        al funct           phase               k        pn
         1         2         4         5     9        0.000000        6.572066         1    ;  uncertainty k = 0.481412
         1         2         4         5     9      180.000000        8.010378         2    ;  uncertainty k = 0.363882
         1         2         4         5     9        0.000000        1.217101         3    ;  uncertainty k = 0.279465
         1         2         4         5     9      180.000000       -0.235629         4    ;  uncertainty k = 0.261412
         1         2         4        37     9        0.000000       -1.658728         1    ;  uncertainty k = 0.660729
         1         2         4        37     9      180.000000        5.936334         2    ;  uncertainty k = 0.549887
         1         2         4        37     9        0.000000        1.707583         3    ;  uncertainty k = 0.167946
         1         2         4        37     9      180.000000        0.247533         4    ;  uncertainty k = 0.353616
         2         4         5         6     9        0.000000        0.987639         1    ;  uncertainty k = 0.936447
         2         4         5         6     9      180.000000        4.205391         2    ;  uncertainty k = 0.413296
         2         4         5         6     9        0.000000        0.874184         3    ;  uncertainty k = 0.125072
         2         4         5         6     9      180.000000        0.230043         4    ;  uncertainty k = 0.087211
         2         4         5        10     9        0.000000        1.208764         1    ;  uncertainty k = 1.134646
         2         4         5        10     9      180.000000        4.012806         2    ;  uncertainty k = 0.367400
         2         4         5        10     9        0.000000        0.694510         3    ;  uncertainty k = 0.093629
         2         4         5        10     9      180.000000        0.271211         4    ;  uncertainty k = 0.108647
         3         2         1        34     9        0.000000        0.177844         1    ;  uncertainty k = 0.424494
         3         2         1        34     9      180.000000        3.711489         2    ;  uncertainty k = 0.312593
         3         2         1        34     9        0.000000        0.588321         3    ;  uncertainty k = 0.053527
         3         2         1        34     9      180.000000        0.149953         4    ;  uncertainty k = 0.050374
         3         2         1        35     9        0.000000        0.177844         1    ;  uncertainty k = 0.424494
         3         2         1        35     9      180.000000        3.711489         2    ;  uncertainty k = 0.312593
         3         2         1        35     9        0.000000        0.588321         3    ;  uncertainty k = 0.053527
         3         2         1        35     9      180.000000        0.149953         4    ;  uncertainty k = 0.050374
         3         2         1        36     9        0.000000        0.177844         1    ;  uncertainty k = 0.424494
         3         2         1        36     9      180.000000        3.711489         2    ;  uncertainty k = 0.312593
         3         2         1        36     9        0.000000        0.588321         3    ;  uncertainty k = 0.053527
         3         2         1        36     9      180.000000        0.149953         4    ;  uncertainty k = 0.050374
         3         2         4         5     9        0.000000        4.834756         1    ;  uncertainty k = 1.101862
         3         2         4         5     9      180.000000       15.227226         2    ;  uncertainty k = 0.245563
         3         2         4         5     9        0.000000        0.826450         3    ;  uncertainty k = 0.188693
         3         2         4         5     9      180.000000       -1.139093         4    ;  uncertainty k = 0.137567
         3         2         4        37     9        0.000000        3.317766         1    ;  uncertainty k = 0.735455
         3         2         4        37     9      180.000000       15.830164         2    ;  uncertainty k = 0.114137
         3         2         4        37     9        0.000000        1.326709         3    ;  uncertainty k = 0.382831
         3         2         4        37     9      180.000000       -0.293312         4    ;  uncertainty k = 0.235649
         4         2         1        34     9        0.000000       -0.807351         1    ;  uncertainty k = 0.277706
         4         2         1        34     9      180.000000        1.676276         2    ;  uncertainty k = 0.340283
         4         2         1        34     9        0.000000        0.209470         3    ;  uncertainty k = 0.031342
         4         2         1        34     9      180.000000        0.054560         4    ;  uncertainty k = 0.105691
         4         2         1        35     9        0.000000       -0.807351         1    ;  uncertainty k = 0.277706
         4         2         1        35     9      180.000000        1.676276         2    ;  uncertainty k = 0.340283
         4         2         1        35     9        0.000000        0.209470         3    ;  uncertainty k = 0.031342
         4         2         1        35     9      180.000000        0.054560         4    ;  uncertainty k = 0.105691
         4         2         1        36     9        0.000000       -0.807351         1    ;  uncertainty k = 0.277706
         4         2         1        36     9      180.000000        1.676276         2    ;  uncertainty k = 0.340283
         4         2         1        36     9        0.000000        0.209470         3    ;  uncertainty k = 0.031342
         4         2         1        36     9      180.000000        0.054560         4    ;  uncertainty k = 0.105691
         4         5         6         7     9        0.000000       -0.018754         1    ;  uncertainty k = 0.387467
         4         5         6         7     9      180.000000       10.258204         2    ;  uncertainty k = 0.466557
         4         5         6         7     9        0.000000        1.084694         3    ;  uncertainty k = 0.437188
         4         5         6         7     9      180.000000        1.588122         4    ;  uncertainty k = 0.200381
         4         5         6        38     9        0.000000       -0.230762         1    ;  uncertainty k = 0.232196
         4         5         6        38     9      180.000000        8.226106         2    ;  uncertainty k = 0.427808
         4         5         6        38     9        0.000000        0.759345         3    ;  uncertainty k = 0.175465
         4         5         6        38     9      180.000000        1.100311         4    ;  uncertainty k = 0.222306
         4         5        10         9     9        0.000000        0.139796         1    ;  uncertainty k = 0.540762
         4         5        10         9     9      180.000000       10.333593         2    ;  uncertainty k = 0.253739
         4         5        10         9     9        0.000000        0.940510         3    ;  uncertainty k = 0.301300
         4         5        10         9     9      180.000000        1.472307         4    ;  uncertainty k = 0.334852
         4         5        10        40     9        0.000000       -0.088743         1    ;  uncertainty k = 0.214637
         4         5        10        40     9      180.000000        8.167194         2    ;  uncertainty k = 0.365793
         4         5        10        40     9        0.000000        0.817286         3    ;  uncertainty k = 0.225827
         4         5        10        40     9      180.000000        1.233683         4    ;  uncertainty k = 0.202420
         5         6         7         8     9        0.000000       -0.186185         1    ;  uncertainty k = 0.496162
         5         6         7         8     9      180.000000       12.641530         2    ;  uncertainty k = 0.540394
         5         6         7         8     9        0.000000       -0.659257         3    ;  uncertainty k = 0.576403
         5         6         7         8     9      180.000000        1.039699         4    ;  uncertainty k = 0.373801
         5         6         7        39     9        0.000000       -0.203398         1    ;  uncertainty k = 0.347580
         5         6         7        39     9      180.000000        8.499704         2    ;  uncertainty k = 0.383031
         5         6         7        39     9        0.000000        1.172088         3    ;  uncertainty k = 0.290269
         5         6         7        39     9      180.000000        1.738590         4    ;  uncertainty k = 0.112607
         5        10         9         8     9        0.000000       -0.498759         1    ;  uncertainty k = 0.557438
         5        10         9         8     9      180.000000       10.051804         2    ;  uncertainty k = 0.549920
         5        10         9         8     9        0.000000        0.256117         3    ;  uncertainty k = 0.171848
         5        10         9         8     9      180.000000        1.315115         4    ;  uncertainty k = 0.328345
         5        10         9        11     9        0.000000        0.288354         1    ;  uncertainty k = 0.553370
         5        10         9        11     9      180.000000        8.312506         2    ;  uncertainty k = 0.993020
         5        10         9        11     9        0.000000        1.535504         3    ;  uncertainty k = 0.376812
         5        10         9        11     9      180.000000        2.023644         4    ;  uncertainty k = 0.322043
         6         5         4        37     9        0.000000        0.197210         1    ;  uncertainty k = 0.802999
         6         5         4        37     9      180.000000        4.435167         2    ;  uncertainty k = 0.114603
         6         5         4        37     9        0.000000        0.692066         3    ;  uncertainty k = 0.147959
         6         5         4        37     9      180.000000        0.346470         4    ;  uncertainty k = 0.050415
         6         5        10         9     9        0.000000       -0.241523         1    ;  uncertainty k = 0.385488
         6         5        10         9     9      180.000000        8.346919         2    ;  uncertainty k = 0.275010
         6         5        10         9     9        0.000000        0.155721         3    ;  uncertainty k = 0.374079
         6         5        10         9     9      180.000000        1.279004         4    ;  uncertainty k = 0.275463
         6         5        10        40     9        0.000000        0.170914         1    ;  uncertainty k = 0.250020
         6         5        10        40     9      180.000000        6.889242         2    ;  uncertainty k = 0.551997
         6         5        10        40     9        0.000000        1.217638         3    ;  uncertainty k = 0.303226
         6         5        10        40     9      180.000000        1.593874         4    ;  uncertainty k = 0.124034
         6         7         8         9     9        0.000000       -0.234788         1    ;  uncertainty k = 0.430804
         6         7         8         9     9      180.000000        9.179112         2    ;  uncertainty k = 0.556352
         6         7         8         9     9        0.000000        0.197265         3    ;  uncertainty k = 0.342132
         6         7         8         9     9      180.000000        1.257776         4    ;  uncertainty k = 0.357292
         6         7         8        29     9        0.000000        0.349954         1    ;  uncertainty k = 0.486165
         6         7         8        29     9      180.000000       11.027941         2    ;  uncertainty k = 0.352389
         6         7         8        29     9        0.000000        0.991070         3    ;  uncertainty k = 0.311785
         6         7         8        29     9      180.000000        1.654561         4    ;  uncertainty k = 0.154926
         7         6         5        10     9        0.000000        0.006095         1    ;  uncertainty k = 0.279135
         7         6         5        10     9      180.000000        9.154317         2    ;  uncertainty k = 0.310454
         7         6         5        10     9        0.000000       -0.114873         3    ;  uncertainty k = 0.160000
         7         6         5        10     9      180.000000        1.171195         4    ;  uncertainty k = 0.231298
         7         8         9        10     9        0.000000       -0.823427         1    ;  uncertainty k = 0.496745
         7         8         9        10     9      180.000000        7.018373         2    ;  uncertainty k = 0.797995
         7         8         9        10     9        0.000000       -0.045972         3    ;  uncertainty k = 0.445723
         7         8         9        10     9      180.000000        1.111124         4    ;  uncertainty k = 0.232937
         7         8         9        11     9        0.000000        0.232860         1    ;  uncertainty k = 0.223549
         7         8         9        11     9      180.000000        6.670149         2    ;  uncertainty k = 0.497757
         7         8         9        11     9        0.000000        1.322070         3    ;  uncertainty k = 0.250772
         7         8         9        11     9      180.000000        1.681507         4    ;  uncertainty k = 0.210505
         7         8        29        30     9        0.000000        2.433865         1    ;  uncertainty k = 0.994717
         7         8        29        30     9      180.000000        3.852110         2    ;  uncertainty k = 0.301332
         7         8        29        30     9        0.000000        0.344196         3    ;  uncertainty k = 0.157125
         7         8        29        30     9      180.000000        0.062462         4    ;  uncertainty k = 0.117385
         7         8        29        33     9        0.000000        2.433865         1    ;  uncertainty k = 0.994717
         7         8        29        33     9      180.000000        3.852110         2    ;  uncertainty k = 0.301332
         7         8        29        33     9        0.000000        0.344196         3    ;  uncertainty k = 0.157125
         7         8        29        33     9      180.000000        0.062462         4    ;  uncertainty k = 0.117385
         8         7         6        38     9        0.000000        0.087344         1    ;  uncertainty k = 0.175126
         8         7         6        38     9      180.000000        8.513049         2    ;  uncertainty k = 0.470906
         8         7         6        38     9        0.000000        1.254493         3    ;  uncertainty k = 0.262097
         8         7         6        38     9      180.000000        1.755789         4    ;  uncertainty k = 0.190601
         8         9        10        40     9        0.000000       -0.053554         1    ;  uncertainty k = 0.397066
         8         9        10        40     9      180.000000        7.990106         2    ;  uncertainty k = 0.588081
         8         9        10        40     9        0.000000        1.218373         3    ;  uncertainty k = 0.124004
         8         9        10        40     9      180.000000        1.676099         4    ;  uncertainty k = 0.215641
         8         9        11        12     9        0.000000       -4.630142         1    ;  uncertainty k = 1.136009
         8         9        11        12     9      180.000000        5.389087         2    ;  uncertainty k = 0.534178
         8         9        11        12     9        0.000000        0.412101         3    ;  uncertainty k = 0.439816
         8         9        11        12     9      180.000000        0.488820         4    ;  uncertainty k = 0.256679
         8         9        11        13     9        0.000000        2.648101         1    ;  uncertainty k = 0.831730
         8         9        11        13     9      180.000000        5.533769         2    ;  uncertainty k = 0.376841
         8         9        11        13     9        0.000000       -0.090644         3    ;  uncertainty k = 0.172950
         8         9        11        13     9      180.000000        0.452174         4    ;  uncertainty k = 0.154268
         8        29        30        31     9        0.000000        0.807332         1    ;  uncertainty k = 2.670956
         8        29        30        31     9      180.000000       14.537654         2    ;  uncertainty k = 0.385240
         8        29        30        31     9        0.000000        1.366621         3    ;  uncertainty k = 0.517450
         8        29        30        31     9      180.000000        0.089453         4    ;  uncertainty k = 0.190431
         8        29        33        32     9        0.000000        0.807332         1    ;  uncertainty k = 2.670956
         8        29        33        32     9      180.000000       14.537654         2    ;  uncertainty k = 0.385240
         8        29        33        32     9        0.000000        1.366621         3    ;  uncertainty k = 0.517450
         8        29        33        32     9      180.000000        0.089453         4    ;  uncertainty k = 0.190431
         9         8         7        39     9        0.000000       -0.083458         1    ;  uncertainty k = 0.339377
         9         8         7        39     9      180.000000        6.258051         2    ;  uncertainty k = 0.487455
         9         8         7        39     9        0.000000        1.113622         3    ;  uncertainty k = 0.194885
         9         8         7        39     9      180.000000        1.584845         4    ;  uncertainty k = 0.229403
         9         8        29        30     9        0.000000       -1.240276         1    ;  uncertainty k = 0.979167
         9         8        29        30     9      180.000000        3.625856         2    ;  uncertainty k = 0.321352
         9         8        29        30     9        0.000000        0.667098         3    ;  uncertainty k = 0.234547
         9         8        29        30     9      180.000000       -0.075638         4    ;  uncertainty k = 0.157688
         9         8        29        33     9        0.000000       -1.240276         1    ;  uncertainty k = 0.979167
         9         8        29        33     9      180.000000        3.625856         2    ;  uncertainty k = 0.321352
         9         8        29        33     9        0.000000        0.667098         3    ;  uncertainty k = 0.234547
         9         8        29        33     9      180.000000       -0.075638         4    ;  uncertainty k = 0.157688
         9        11        13        14     9        0.000000        3.446738         1    ;  uncertainty k = 1.200456
         9        11        13        14     9      180.000000        8.483267         2    ;  uncertainty k = 0.325778
         9        11        13        14     9        0.000000        1.797677         3    ;  uncertainty k = 0.363243
         9        11        13        14     9      180.000000        0.060224         4    ;  uncertainty k = 0.213448
         9        11        13        20     9        0.000000        3.446736         1    ;  uncertainty k = 1.200455
         9        11        13        20     9      180.000000        8.483270         2    ;  uncertainty k = 0.325779
         9        11        13        20     9        0.000000        1.797677         3    ;  uncertainty k = 0.363243
         9        11        13        20     9      180.000000        0.060224         4    ;  uncertainty k = 0.213448
        10         5         4        37     9        0.000000        0.206681         1    ;  uncertainty k = 1.280464
        10         5         4        37     9      180.000000        4.217607         2    ;  uncertainty k = 0.482728
        10         5         4        37     9        0.000000        0.562032         3    ;  uncertainty k = 0.211113
        10         5         4        37     9      180.000000        0.314097         4    ;  uncertainty k = 0.063701
        10         5         6        38     9        0.000000        0.062378         1    ;  uncertainty k = 0.160825
        10         5         6        38     9      180.000000        6.726151         2    ;  uncertainty k = 0.503109
        10         5         6        38     9        0.000000        1.125631         3    ;  uncertainty k = 0.365695
        10         5         6        38     9      180.000000        1.423696         4    ;  uncertainty k = 0.145189
        10         9         8        29     9        0.000000        0.498553         1    ;  uncertainty k = 0.340217
        10         9         8        29     9      180.000000        9.918682         2    ;  uncertainty k = 0.332268
        10         9         8        29     9        0.000000        1.102570         3    ;  uncertainty k = 0.284688
        10         9         8        29     9      180.000000        1.487275         4    ;  uncertainty k = 0.117734
        10         9        11        12     9        0.000000       -2.388453         1    ;  uncertainty k = 0.374076
        10         9        11        12     9      180.000000        4.012919         2    ;  uncertainty k = 0.275813
        10         9        11        12     9        0.000000        0.442283         3    ;  uncertainty k = 0.286098
        10         9        11        12     9      180.000000        0.443935         4    ;  uncertainty k = 0.104071
        10         9        11        13     9        0.000000        2.271710         1    ;  uncertainty k = 1.047899
        10         9        11        13     9      180.000000        4.837416         2    ;  uncertainty k = 0.303563
        10         9        11        13     9        0.000000        0.249902         3    ;  uncertainty k = 0.260327
        10         9        11        13     9      180.000000        0.302767         4    ;  uncertainty k = 0.099147
        11         9         8        29     9        0.000000       -0.261841         1    ;  uncertainty k = 1.011299
        11         9         8        29     9      180.000000        9.673141         2    ;  uncertainty k = 0.620513
        11         9         8        29     9        0.000000        1.344708         3    ;  uncertainty k = 0.461691
        11         9         8        29     9      180.000000        1.233839         4    ;  uncertainty k = 0.354419
        11         9        10        40     9        0.000000        0.117708         1    ;  uncertainty k = 0.408789
        11         9        10        40     9      180.000000        8.700712         2    ;  uncertainty k = 0.706743
        11         9        10        40     9        0.000000        0.955349         3    ;  uncertainty k = 0.300153
        11         9        10        40     9      180.000000        1.368848         4    ;  uncertainty k = 0.370878
        11        13        14        15     9        0.000000       -0.085821         1    ;  uncertainty k = 0.713439
        11        13        14        15     9      180.000000       -0.530308         2    ;  uncertainty k = 0.348352
        11        13        14        15     9        0.000000        0.226501         3    ;  uncertainty k = 0.298727
        11        13        14        15     9      180.000000        0.747469         4    ;  uncertainty k = 0.139673
        11        13        14        41     9        0.000000        1.387510         1    ;  uncertainty k = 0.711225
        11        13        14        41     9      180.000000        0.112690         2    ;  uncertainty k = 0.111228
        11        13        14        41     9        0.000000        0.022242         3    ;  uncertainty k = 0.100183
        11        13        14        41     9      180.000000        0.262951         4    ;  uncertainty k = 0.062601
        11        13        14        42     9        0.000000        1.387510         1    ;  uncertainty k = 0.711225
        11        13        14        42     9      180.000000        0.112690         2    ;  uncertainty k = 0.111228
        11        13        14        42     9        0.000000        0.022242         3    ;  uncertainty k = 0.100183
        11        13        14        42     9      180.000000        0.262951         4    ;  uncertainty k = 0.062601
        11        13        20        19     9        0.000000       -0.085820         1    ;  uncertainty k = 0.713439
        11        13        20        19     9      180.000000       -0.530308         2    ;  uncertainty k = 0.348353
        11        13        20        19     9        0.000000        0.226501         3    ;  uncertainty k = 0.298727
        11        13        20        19     9      180.000000        0.747469         4    ;  uncertainty k = 0.139673
        11        13        20        49     9        0.000000        1.387511         1    ;  uncertainty k = 0.711224
        11        13        20        49     9      180.000000        0.112689         2    ;  uncertainty k = 0.111229
        11        13        20        49     9        0.000000        0.022242         3    ;  uncertainty k = 0.100183
        11        13        20        49     9      180.000000        0.262951         4    ;  uncertainty k = 0.062601
        11        13        20        50     9        0.000000        1.387511         1    ;  uncertainty k = 0.711224
        11        13        20        50     9      180.000000        0.112689         2    ;  uncertainty k = 0.111229
        11        13        20        50     9        0.000000        0.022242         3    ;  uncertainty k = 0.100183
        11        13        20        50     9      180.000000        0.262951         4    ;  uncertainty k = 0.062601
        12        11        13        14     9        0.000000        5.956584         1    ;  uncertainty k = 0.456263
        12        11        13        14     9      180.000000       16.783942         2    ;  uncertainty k = 0.199222
        12        11        13        14     9        0.000000        0.221638         3    ;  uncertainty k = 0.113318
        12        11        13        14     9      180.000000       -1.047645         4    ;  uncertainty k = 0.139489
        12        11        13        20     9        0.000000        5.956584         1    ;  uncertainty k = 0.456262
        12        11        13        20     9      180.000000       16.783942         2    ;  uncertainty k = 0.199222
        12        11        13        20     9        0.000000        0.221637         3    ;  uncertainty k = 0.113318
        12        11        13        20     9      180.000000       -1.047645         4    ;  uncertainty k = 0.139490
        13        14        15        16     9        0.000000       -2.553641         1    ;  uncertainty k = 1.026054
        13        14        15        16     9      180.000000       -0.018660         2    ;  uncertainty k = 0.745822
        13        14        15        16     9        0.000000        1.607209         3    ;  uncertainty k = 0.236201
        13        14        15        16     9      180.000000       -0.188588         4    ;  uncertainty k = 0.120205
        13        14        15        19     9        0.000000       -0.756384         1    ;  uncertainty k = 0.691038
        13        14        15        19     9      180.000000        5.856437         2    ;  uncertainty k = 0.964491
        13        14        15        19     9        0.000000        0.445306         3    ;  uncertainty k = 0.293243
        13        14        15        19     9      180.000000       -1.144824         4    ;  uncertainty k = 0.220768
        13        14        15        43     9        0.000000        0.134769         1    ;  uncertainty k = 0.685953
        13        14        15        43     9      180.000000        0.831762         2    ;  uncertainty k = 0.416181
        13        14        15        43     9        0.000000        1.099681         3    ;  uncertainty k = 0.160463
        13        14        15        43     9      180.000000       -0.068376         4    ;  uncertainty k = 0.100460
        13        20        19        15     9        0.000000       -0.756384         1    ;  uncertainty k = 0.691036
        13        20        19        15     9      180.000000        5.856437         2    ;  uncertainty k = 0.964489
        13        20        19        15     9        0.000000        0.445305         3    ;  uncertainty k = 0.293243
        13        20        19        15     9      180.000000       -1.144824         4    ;  uncertainty k = 0.220768
        13        20        19        18     9        0.000000       -2.553642         1    ;  uncertainty k = 1.026055
        13        20        19        18     9      180.000000       -0.018661         2    ;  uncertainty k = 0.745822
        13        20        19        18     9        0.000000        1.607209         3    ;  uncertainty k = 0.236200
        13        20        19        18     9      180.000000       -0.188588         4    ;  uncertainty k = 0.120204
        13        20        19        48     9        0.000000        0.134770         1    ;  uncertainty k = 0.685952
        13        20        19        48     9      180.000000        0.831761         2    ;  uncertainty k = 0.416184
        13        20        19        48     9        0.000000        1.099681         3    ;  uncertainty k = 0.160463
        13        20        19        48     9      180.000000       -0.068376         4    ;  uncertainty k = 0.100459
        14        13        20        19     9        0.000000       -0.577892         1    ;  uncertainty k = 0.965263
        14        13        20        19     9      180.000000        0.209541         2    ;  uncertainty k = 0.707882
        14        13        20        19     9        0.000000        0.796577         3    ;  uncertainty k = 0.216244
        14        13        20        19     9      180.000000        0.149599         4    ;  uncertainty k = 0.256658
        14        13        20        49     9        0.000000       -1.853141         1    ;  uncertainty k = 0.582032
        14        13        20        49     9      180.000000        1.033697         2    ;  uncertainty k = 0.450442
        14        13        20        49     9        0.000000        1.252345         3    ;  uncertainty k = 0.140559
        14        13        20        49     9      180.000000        0.292848         4    ;  uncertainty k = 0.121326
        14        13        20        50     9        0.000000       -1.853141         1    ;  uncertainty k = 0.582032
        14        13        20        50     9      180.000000        1.033697         2    ;  uncertainty k = 0.450442
        14        13        20        50     9        0.000000        1.252345         3    ;  uncertainty k = 0.140559
        14        13        20        50     9      180.000000        0.292848         4    ;  uncertainty k = 0.121326
        14        15        16        17     9        0.000000       -1.986981         1    ;  uncertainty k = 1.131583
        14        15        16        17     9      180.000000        0.974420         2    ;  uncertainty k = 0.865256
        14        15        16        17     9        0.000000        1.658618         3    ;  uncertainty k = 0.387466
        14        15        16        17     9      180.000000       -0.170489         4    ;  uncertainty k = 0.236445
        14        15        16        44     9        0.000000       -0.670734         1    ;  uncertainty k = 0.233996
        14        15        16        44     9      180.000000       -0.386309         2    ;  uncertainty k = 0.258590
        14        15        16        44     9        0.000000        0.557638         3    ;  uncertainty k = 0.179621
        14        15        16        44     9      180.000000       -0.081826         4    ;  uncertainty k = 0.095492
        14        15        16        45     9        0.000000       -0.670734         1    ;  uncertainty k = 0.233996
        14        15        16        45     9      180.000000       -0.386309         2    ;  uncertainty k = 0.258590
        14        15        16        45     9        0.000000        0.557638         3    ;  uncertainty k = 0.179621
        14        15        16        45     9      180.000000       -0.081826         4    ;  uncertainty k = 0.095492
        14        15        19        18     9        0.000000       -3.847148         1    ;  uncertainty k = 0.842081
        14        15        19        18     9      180.000000        0.994503         2    ;  uncertainty k = 1.017625
        14        15        19        18     9        0.000000        1.189093         3    ;  uncertainty k = 0.581588
        14        15        19        18     9      180.000000       -0.416044         4    ;  uncertainty k = 0.334398
        14        15        19        20     9        0.000000       -3.717089         1    ;  uncertainty k = 0.646014
        14        15        19        20     9      180.000000        0.952706         2    ;  uncertainty k = 0.984304
        14        15        19        20     9        0.000000        1.178982         3    ;  uncertainty k = 0.499658
        14        15        19        20     9      180.000000       -0.410261         4    ;  uncertainty k = 0.338854
        14        15        19        48     9        0.000000       -1.291634         1    ;  uncertainty k = 0.560343
        14        15        19        48     9      180.000000        0.594317         2    ;  uncertainty k = 0.368267
        14        15        19        48     9        0.000000        1.030260         3    ;  uncertainty k = 0.246250
        14        15        19        48     9      180.000000        0.081404         4    ;  uncertainty k = 0.059900
        15        14        13        20     9        0.000000       -0.577894         1    ;  uncertainty k = 0.965261
        15        14        13        20     9      180.000000        0.209543         2    ;  uncertainty k = 0.707882
        15        14        13        20     9        0.000000        0.796577         3    ;  uncertainty k = 0.216244
        15        14        13        20     9      180.000000        0.149599         4    ;  uncertainty k = 0.256659
        15        16        17        18     9        0.000000        0.409930         1    ;  uncertainty k = 1.033845
        15        16        17        18     9      180.000000        1.423324         2    ;  uncertainty k = 1.181229
        15        16        17        18     9        0.000000        0.860226         3    ;  uncertainty k = 0.332034
        15        16        17        18     9      180.000000        0.010764         4    ;  uncertainty k = 0.168708
        15        16        17        21     9        0.000000       -5.472949         1    ;  uncertainty k = 1.903108
        15        16        17        21     9      180.000000        0.716174         2    ;  uncertainty k = 0.687897
        15        16        17        21     9        0.000000        0.811634         3    ;  uncertainty k = 0.285402
        15        16        17        21     9      180.000000        0.315929         4    ;  uncertainty k = 0.127583
        15        19        18        17     9        0.000000       -0.248943         1    ;  uncertainty k = 1.669287
        15        19        18        17     9      180.000000        6.161828         2    ;  uncertainty k = 1.110762
        15        19        18        17     9        0.000000        0.670927         3    ;  uncertainty k = 0.347091
        15        19        18        17     9      180.000000       -1.488831         4    ;  uncertainty k = 0.506458
        15        19        18        46     9        0.000000        0.646623         1    ;  uncertainty k = 0.517783
        15        19        18        46     9      180.000000       -1.099688         2    ;  uncertainty k = 0.743823
        15        19        18        46     9        0.000000       -0.334778         3    ;  uncertainty k = 0.213643
        15        19        18        46     9      180.000000       -0.018734         4    ;  uncertainty k = 0.206091
        15        19        18        47     9        0.000000        0.646623         1    ;  uncertainty k = 0.517783
        15        19        18        47     9      180.000000       -1.099688         2    ;  uncertainty k = 0.743823
        15        19        18        47     9        0.000000       -0.334778         3    ;  uncertainty k = 0.213643
        15        19        18        47     9      180.000000       -0.018734         4    ;  uncertainty k = 0.206091
        15        19        20        49     9        0.000000        0.480412         1    ;  uncertainty k = 0.492791
        15        19        20        49     9      180.000000       -1.104494         2    ;  uncertainty k = 0.672328
        15        19        20        49     9        0.000000       -0.270072         3    ;  uncertainty k = 0.170670
        15        19        20        49     9      180.000000       -0.013161         4    ;  uncertainty k = 0.174221
        15        19        20        50     9        0.000000        0.480412         1    ;  uncertainty k = 0.492791
        15        19        20        50     9      180.000000       -1.104494         2    ;  uncertainty k = 0.672328
        15        19        20        50     9        0.000000       -0.270072         3    ;  uncertainty k = 0.170670
        15        19        20        50     9      180.000000       -0.013161         4    ;  uncertainty k = 0.174221
        16        15        14        41     9        0.000000       -0.498818         1    ;  uncertainty k = 0.107246
        16        15        14        41     9      180.000000       -0.409707         2    ;  uncertainty k = 0.197165
        16        15        14        41     9        0.000000        0.564544         3    ;  uncertainty k = 0.186998
        16        15        14        41     9      180.000000       -0.072177         4    ;  uncertainty k = 0.062323
        16        15        14        42     9        0.000000       -0.498818         1    ;  uncertainty k = 0.107246
        16        15        14        42     9      180.000000       -0.409707         2    ;  uncertainty k = 0.197165
        16        15        14        42     9        0.000000        0.564544         3    ;  uncertainty k = 0.186998
        16        15        14        42     9      180.000000       -0.072177         4    ;  uncertainty k = 0.062323
        16        15        19        18     9        0.000000       -3.896618         1    ;  uncertainty k = 1.087276
        16        15        19        18     9      180.000000        1.035026         2    ;  uncertainty k = 1.026287
        16        15        19        18     9        0.000000        1.207838         3    ;  uncertainty k = 0.671623
        16        15        19        18     9      180.000000       -0.436931         4    ;  uncertainty k = 0.343365
        16        15        19        20     9        0.000000       -3.847149         1    ;  uncertainty k = 0.842081
        16        15        19        20     9      180.000000        0.994504         2    ;  uncertainty k = 1.017625
        16        15        19        20     9        0.000000        1.189093         3    ;  uncertainty k = 0.581588
        16        15        19        20     9      180.000000       -0.416044         4    ;  uncertainty k = 0.334399
        16        15        19        48     9        0.000000       -1.223112         1    ;  uncertainty k = 0.611378
        16        15        19        48     9      180.000000        0.489633         2    ;  uncertainty k = 0.414978
        16        15        19        48     9        0.000000        0.997353         3    ;  uncertainty k = 0.241670
        16        15        19        48     9      180.000000        0.066778         4    ;  uncertainty k = 0.087125
        16        17        18        19     9        0.000000        0.409933         1    ;  uncertainty k = 1.033845
        16        17        18        19     9      180.000000        1.423324         2    ;  uncertainty k = 1.181231
        16        17        18        19     9        0.000000        0.860226         3    ;  uncertainty k = 0.332034
        16        17        18        19     9      180.000000        0.010764         4    ;  uncertainty k = 0.168707
        16        17        18        46     9        0.000000       -2.106812         1    ;  uncertainty k = 0.722680
        16        17        18        46     9      180.000000        1.271153         2    ;  uncertainty k = 0.391419
        16        17        18        46     9        0.000000        1.144989         3    ;  uncertainty k = 0.081015
        16        17        18        46     9      180.000000        0.249969         4    ;  uncertainty k = 0.124009
        16        17        18        47     9        0.000000       -2.106812         1    ;  uncertainty k = 0.722680
        16        17        18        47     9      180.000000        1.271153         2    ;  uncertainty k = 0.391419
        16        17        18        47     9        0.000000        1.144989         3    ;  uncertainty k = 0.081015
        16        17        18        47     9      180.000000        0.249969         4    ;  uncertainty k = 0.124009
        16        17        21        22     9        0.000000        5.106260         1    ;  uncertainty k = 0.513054
        16        17        21        22     9      180.000000       11.756746         2    ;  uncertainty k = 0.134927
        16        17        21        22     9        0.000000        0.174634         3    ;  uncertainty k = 0.195419
        16        17        21        22     9      180.000000       -0.347384         4    ;  uncertainty k = 0.051935
        16        17        21        28     9        0.000000        5.106263         1    ;  uncertainty k = 0.513054
        16        17        21        28     9      180.000000       11.756747         2    ;  uncertainty k = 0.134927
        16        17        21        28     9        0.000000        0.174634         3    ;  uncertainty k = 0.195419
        16        17        21        28     9      180.000000       -0.347384         4    ;  uncertainty k = 0.051935
        17        16        15        19     9        0.000000       -0.248942         1    ;  uncertainty k = 1.669285
        17        16        15        19     9      180.000000        6.161827         2    ;  uncertainty k = 1.110764
        17        16        15        19     9        0.000000        0.670927         3    ;  uncertainty k = 0.347091
        17        16        15        19     9      180.000000       -1.488831         4    ;  uncertainty k = 0.506459
        17        16        15        43     9        0.000000        0.565926         1    ;  uncertainty k = 0.856650
        17        16        15        43     9      180.000000        1.324273         2    ;  uncertainty k = 0.513613
        17        16        15        43     9        0.000000        1.171168         3    ;  uncertainty k = 0.217599
        17        16        15        43     9      180.000000       -0.072433         4    ;  uncertainty k = 0.184790
        17        18        19        20     9        0.000000       -1.986980         1    ;  uncertainty k = 1.131582
        17        18        19        20     9      180.000000        0.974419         2    ;  uncertainty k = 0.865254
        17        18        19        20     9        0.000000        1.658617         3    ;  uncertainty k = 0.387465
        17        18        19        20     9      180.000000       -0.170489         4    ;  uncertainty k = 0.236446
        17        18        19        48     9        0.000000        0.565926         1    ;  uncertainty k = 0.856649
        17        18        19        48     9      180.000000        1.324274         2    ;  uncertainty k = 0.513615
        17        18        19        48     9        0.000000        1.171169         3    ;  uncertainty k = 0.217600
        17        18        19        48     9      180.000000       -0.072433         4    ;  uncertainty k = 0.184790
        17        21        22        23     9        0.000000        0.521918         1    ;  uncertainty k = 0.979110
        17        21        22        23     9      180.000000       10.533270         2    ;  uncertainty k = 0.414227
        17        21        22        23     9        0.000000        1.726080         3    ;  uncertainty k = 0.365718
        17        21        22        23     9      180.000000        0.994637         4    ;  uncertainty k = 0.141069
        17        21        28        26     9        0.000000        0.521916         1    ;  uncertainty k = 0.979112
        17        21        28        26     9      180.000000       10.533272         2    ;  uncertainty k = 0.414227
        17        21        28        26     9        0.000000        1.726080         3    ;  uncertainty k = 0.365718
        17        21        28        26     9      180.000000        0.994636         4    ;  uncertainty k = 0.141069
        18        17        16        44     9        0.000000       -2.106812         1    ;  uncertainty k = 0.722683
        18        17        16        44     9      180.000000        1.271152         2    ;  uncertainty k = 0.391418
        18        17        16        44     9        0.000000        1.144990         3    ;  uncertainty k = 0.081015
        18        17        16        44     9      180.000000        0.249969         4    ;  uncertainty k = 0.124009
        18        17        16        45     9        0.000000       -2.106812         1    ;  uncertainty k = 0.722683
        18        17        16        45     9      180.000000        1.271152         2    ;  uncertainty k = 0.391418
        18        17        16        45     9        0.000000        1.144990         3    ;  uncertainty k = 0.081015
        18        17        16        45     9      180.000000        0.249969         4    ;  uncertainty k = 0.124009
        18        17        21        22     9        0.000000        5.106260         1    ;  uncertainty k = 0.513054
        18        17        21        22     9      180.000000       11.756746         2    ;  uncertainty k = 0.134928
        18        17        21        22     9        0.000000        0.174633         3    ;  uncertainty k = 0.195420
        18        17        21        22     9      180.000000       -0.347384         4    ;  uncertainty k = 0.051935
        18        17        21        28     9        0.000000        5.106262         1    ;  uncertainty k = 0.513055
        18        17        21        28     9      180.000000       11.756747         2    ;  uncertainty k = 0.134927
        18        17        21        28     9        0.000000        0.174633         3    ;  uncertainty k = 0.195419
        18        17        21        28     9      180.000000       -0.347384         4    ;  uncertainty k = 0.051935
        18        19        15        43     9        0.000000       -1.223111         1    ;  uncertainty k = 0.611378
        18        19        15        43     9      180.000000        0.489636         2    ;  uncertainty k = 0.414976
        18        19        15        43     9        0.000000        0.997354         3    ;  uncertainty k = 0.241670
        18        19        15        43     9      180.000000        0.066778         4    ;  uncertainty k = 0.087125
        18        19        20        49     9        0.000000       -0.498817         1    ;  uncertainty k = 0.107248
        18        19        20        49     9      180.000000       -0.409706         2    ;  uncertainty k = 0.197166
        18        19        20        49     9        0.000000        0.564544         3    ;  uncertainty k = 0.186999
        18        19        20        49     9      180.000000       -0.072177         4    ;  uncertainty k = 0.062323
        18        19        20        50     9        0.000000       -0.498817         1    ;  uncertainty k = 0.107248
        18        19        20        50     9      180.000000       -0.409706         2    ;  uncertainty k = 0.197166
        18        19        20        50     9        0.000000        0.564544         3    ;  uncertainty k = 0.186999
        18        19        20        50     9      180.000000       -0.072177         4    ;  uncertainty k = 0.062323
        19        15        14        41     9        0.000000        0.480413         1    ;  uncertainty k = 0.492791
        19        15        14        41     9      180.000000       -1.104494         2    ;  uncertainty k = 0.672329
        19        15        14        41     9        0.000000       -0.270072         3    ;  uncertainty k = 0.170670
        19        15        14        41     9      180.000000       -0.013160         4    ;  uncertainty k = 0.174221
        19        15        14        42     9        0.000000        0.480413         1    ;  uncertainty k = 0.492791
        19        15        14        42     9      180.000000       -1.104494         2    ;  uncertainty k = 0.672329
        19        15        14        42     9        0.000000       -0.270072         3    ;  uncertainty k = 0.170670
        19        15        14        42     9      180.000000       -0.013160         4    ;  uncertainty k = 0.174221
        19        15        16        44     9        0.000000        0.646623         1    ;  uncertainty k = 0.517782
        19        15        16        44     9      180.000000       -1.099688         2    ;  uncertainty k = 0.743824
        19        15        16        44     9        0.000000       -0.334778         3    ;  uncertainty k = 0.213644
        19        15        16        44     9      180.000000       -0.018734         4    ;  uncertainty k = 0.206091
        19        15        16        45     9        0.000000        0.646623         1    ;  uncertainty k = 0.517782
        19        15        16        45     9      180.000000       -1.099688         2    ;  uncertainty k = 0.743824
        19        15        16        45     9        0.000000       -0.334778         3    ;  uncertainty k = 0.213644
        19        15        16        45     9      180.000000       -0.018734         4    ;  uncertainty k = 0.206091
        19        18        17        21     9        0.000000       -5.472951         1    ;  uncertainty k = 1.903105
        19        18        17        21     9      180.000000        0.716173         2    ;  uncertainty k = 0.687896
        19        18        17        21     9        0.000000        0.811634         3    ;  uncertainty k = 0.285402
        19        18        17        21     9      180.000000        0.315929         4    ;  uncertainty k = 0.127584
        20        13        14        41     9        0.000000       -1.853141         1    ;  uncertainty k = 0.582031
        20        13        14        41     9      180.000000        1.033697         2    ;  uncertainty k = 0.450442
        20        13        14        41     9        0.000000        1.252345         3    ;  uncertainty k = 0.140560
        20        13        14        41     9      180.000000        0.292848         4    ;  uncertainty k = 0.121326
        20        13        14        42     9        0.000000       -1.853141         1    ;  uncertainty k = 0.582031
        20        13        14        42     9      180.000000        1.033697         2    ;  uncertainty k = 0.450442
        20        13        14        42     9        0.000000        1.252345         3    ;  uncertainty k = 0.140560
        20        13        14        42     9      180.000000        0.292848         4    ;  uncertainty k = 0.121326
        20        19        15        43     9        0.000000       -1.291633         1    ;  uncertainty k = 0.560342
        20        19        15        43     9      180.000000        0.594320         2    ;  uncertainty k = 0.368266
        20        19        15        43     9        0.000000        1.030260         3    ;  uncertainty k = 0.246251
        20        19        15        43     9      180.000000        0.081404         4    ;  uncertainty k = 0.059901
        20        19        18        46     9        0.000000       -0.670733         1    ;  uncertainty k = 0.233995
        20        19        18        46     9      180.000000       -0.386308         2    ;  uncertainty k = 0.258590
        20        19        18        46     9        0.000000        0.557638         3    ;  uncertainty k = 0.179621
        20        19        18        46     9      180.000000       -0.081826         4    ;  uncertainty k = 0.095492
        20        19        18        47     9        0.000000       -0.670733         1    ;  uncertainty k = 0.233995
        20        19        18        47     9      180.000000       -0.386308         2    ;  uncertainty k = 0.258590
        20        19        18        47     9        0.000000        0.557638         3    ;  uncertainty k = 0.179621
        20        19        18        47     9      180.000000       -0.081826         4    ;  uncertainty k = 0.095492
        21        17        16        44     9        0.000000       -0.203573         1    ;  uncertainty k = 0.772782
        21        17        16        44     9      180.000000        1.020940         2    ;  uncertainty k = 0.423812
        21        17        16        44     9        0.000000        0.580937         3    ;  uncertainty k = 0.130796
        21        17        16        44     9      180.000000        0.377931         4    ;  uncertainty k = 0.101923
        21        17        16        45     9        0.000000       -0.203573         1    ;  uncertainty k = 0.772782
        21        17        16        45     9      180.000000        1.020940         2    ;  uncertainty k = 0.423812
        21        17        16        45     9        0.000000        0.580937         3    ;  uncertainty k = 0.130796
        21        17        16        45     9      180.000000        0.377931         4    ;  uncertainty k = 0.101923
        21        17        18        46     9        0.000000       -0.203571         1    ;  uncertainty k = 0.772780
        21        17        18        46     9      180.000000        1.020939         2    ;  uncertainty k = 0.423812
        21        17        18        46     9        0.000000        0.580937         3    ;  uncertainty k = 0.130796
        21        17        18        46     9      180.000000        0.377931         4    ;  uncertainty k = 0.101923
        21        17        18        47     9        0.000000       -0.203571         1    ;  uncertainty k = 0.772780
        21        17        18        47     9      180.000000        1.020939         2    ;  uncertainty k = 0.423812
        21        17        18        47     9        0.000000        0.580937         3    ;  uncertainty k = 0.130796
        21        17        18        47     9      180.000000        0.377931         4    ;  uncertainty k = 0.101923
        21        22        23        24     9        0.000000        0.048316         1    ;  uncertainty k = 0.979764
        21        22        23        24     9      180.000000       15.003732         2    ;  uncertainty k = 0.544477
        21        22        23        24     9        0.000000        2.381190         3    ;  uncertainty k = 0.363195
        21        22        23        24     9      180.000000        1.660639         4    ;  uncertainty k = 0.462768
        21        22        23        25     9        0.000000       -0.347752         1    ;  uncertainty k = 0.474198
        21        22        23        25     9      180.000000       15.075410         2    ;  uncertainty k = 0.177114
        21        22        23        25     9        0.000000        0.171723         3    ;  uncertainty k = 0.438996
        21        22        23        25     9      180.000000        1.128465         4    ;  uncertainty k = 0.364424
        21        28        26        25     9        0.000000       -0.347752         1    ;  uncertainty k = 0.474196
        21        28        26        25     9      180.000000       15.075408         2    ;  uncertainty k = 0.177114
        21        28        26        25     9        0.000000        0.171722         3    ;  uncertainty k = 0.438995
        21        28        26        25     9      180.000000        1.128465         4    ;  uncertainty k = 0.364424
        21        28        26        27     9        0.000000        0.048316         1    ;  uncertainty k = 0.979765
        21        28        26        27     9      180.000000       15.003732         2    ;  uncertainty k = 0.544476
        21        28        26        27     9        0.000000        2.381190         3    ;  uncertainty k = 0.363195
        21        28        26        27     9      180.000000        1.660638         4    ;  uncertainty k = 0.462768
        22        21        28        26     9        0.000000       -0.609061         1    ;  uncertainty k = 0.758200
        22        21        28        26     9      180.000000        8.692612         2    ;  uncertainty k = 0.791820
        22        21        28        26     9        0.000000        0.670287         3    ;  uncertainty k = 0.621160
        22        21        28        26     9      180.000000        0.786580         4    ;  uncertainty k = 0.112572
        22        23        24        51     9        0.000000        0.603363         1    ;  uncertainty k = 0.264623
        22        23        24        51     9      180.000000        3.634558         2    ;  uncertainty k = 0.065841
        22        23        24        51     9        0.000000        0.492173         3    ;  uncertainty k = 0.029987
        22        23        24        51     9      180.000000        0.275109         4    ;  uncertainty k = 0.045162
        22        23        24        52     9        0.000000        0.603363         1    ;  uncertainty k = 0.264623
        22        23        24        52     9      180.000000        3.634558         2    ;  uncertainty k = 0.065841
        22        23        24        52     9        0.000000        0.492173         3    ;  uncertainty k = 0.029987
        22        23        24        52     9      180.000000        0.275109         4    ;  uncertainty k = 0.045162
        22        23        24        53     9        0.000000        0.603363         1    ;  uncertainty k = 0.264623
        22        23        24        53     9      180.000000        3.634558         2    ;  uncertainty k = 0.065841
        22        23        24        53     9        0.000000        0.492173         3    ;  uncertainty k = 0.029987
        22        23        24        53     9      180.000000        0.275109         4    ;  uncertainty k = 0.045162
        22        23        25        26     9        0.000000       -0.216009         1    ;  uncertainty k = 0.356935
        22        23        25        26     9      180.000000       11.910554         2    ;  uncertainty k = 0.424708
        22        23        25        26     9        0.000000       -1.407438         3    ;  uncertainty k = 0.758939
        22        23        25        26     9      180.000000        0.980955         4    ;  uncertainty k = 0.077686
        22        23        25        54     9        0.000000        0.224609         1    ;  uncertainty k = 0.474806
        22        23        25        54     9      180.000000        8.441724         2    ;  uncertainty k = 0.328864
        22        23        25        54     9        0.000000        1.108367         3    ;  uncertainty k = 0.321335
        22        23        25        54     9      180.000000        1.600213         4    ;  uncertainty k = 0.093449
        23        22        21        28     9        0.000000       -0.609062         1    ;  uncertainty k = 0.758198
        23        22        21        28     9      180.000000        8.692615         2    ;  uncertainty k = 0.791819
        23        22        21        28     9        0.000000        0.670287         3    ;  uncertainty k = 0.621159
        23        22        21        28     9      180.000000        0.786580         4    ;  uncertainty k = 0.112572
        23        25        26        27     9        0.000000       -0.007202         1    ;  uncertainty k = 0.501718
        23        25        26        27     9      180.000000        7.613772         2    ;  uncertainty k = 0.266338
        23        25        26        27     9        0.000000        0.944105         3    ;  uncertainty k = 0.227995
        23        25        26        27     9      180.000000        1.305658         4    ;  uncertainty k = 0.239337
        23        25        26        28     9        0.000000       -0.216009         1    ;  uncertainty k = 0.356937
        23        25        26        28     9      180.000000       11.910556         2    ;  uncertainty k = 0.424710
        23        25        26        28     9        0.000000       -1.407438         3    ;  uncertainty k = 0.758939
        23        25        26        28     9      180.000000        0.980954         4    ;  uncertainty k = 0.077687
        24        23        25        26     9        0.000000       -0.007201         1    ;  uncertainty k = 0.501715
        24        23        25        26     9      180.000000        7.613773         2    ;  uncertainty k = 0.266339
        24        23        25        26     9        0.000000        0.944105         3    ;  uncertainty k = 0.227996
        24        23        25        26     9      180.000000        1.305657         4    ;  uncertainty k = 0.239337
        24        23        25        54     9        0.000000       -0.261676         1    ;  uncertainty k = 0.315637
        24        23        25        54     9      180.000000        6.874961         2    ;  uncertainty k = 0.342649
        24        23        25        54     9        0.000000        0.656535         3    ;  uncertainty k = 0.284604
        24        23        25        54     9      180.000000        0.765991         4    ;  uncertainty k = 0.276600
        25        23        24        51     9        0.000000       -0.250295         1    ;  uncertainty k = 0.274872
        25        23        24        51     9      180.000000        2.290443         2    ;  uncertainty k = 0.171778
        25        23        24        51     9        0.000000        0.278064         3    ;  uncertainty k = 0.038016
        25        23        24        51     9      180.000000        0.146673         4    ;  uncertainty k = 0.025666
        25        23        24        52     9        0.000000       -0.250295         1    ;  uncertainty k = 0.274872
        25        23        24        52     9      180.000000        2.290443         2    ;  uncertainty k = 0.171778
        25        23        24        52     9        0.000000        0.278064         3    ;  uncertainty k = 0.038016
        25        23        24        52     9      180.000000        0.146673         4    ;  uncertainty k = 0.025666
        25        23        24        53     9        0.000000       -0.250295         1    ;  uncertainty k = 0.274872
        25        23        24        53     9      180.000000        2.290443         2    ;  uncertainty k = 0.171778
        25        23        24        53     9        0.000000        0.278064         3    ;  uncertainty k = 0.038016
        25        23        24        53     9      180.000000        0.146673         4    ;  uncertainty k = 0.025666
        25        26        27        55     9        0.000000       -0.250296         1    ;  uncertainty k = 0.274873
        25        26        27        55     9      180.000000        2.290444         2    ;  uncertainty k = 0.171778
        25        26        27        55     9        0.000000        0.278065         3    ;  uncertainty k = 0.038017
        25        26        27        55     9      180.000000        0.146673         4    ;  uncertainty k = 0.025666
        25        26        27        56     9        0.000000       -0.250296         1    ;  uncertainty k = 0.274873
        25        26        27        56     9      180.000000        2.290444         2    ;  uncertainty k = 0.171778
        25        26        27        56     9        0.000000        0.278065         3    ;  uncertainty k = 0.038017
        25        26        27        56     9      180.000000        0.146673         4    ;  uncertainty k = 0.025666
        25        26        27        57     9        0.000000       -0.250296         1    ;  uncertainty k = 0.274873
        25        26        27        57     9      180.000000        2.290444         2    ;  uncertainty k = 0.171778
        25        26        27        57     9        0.000000        0.278065         3    ;  uncertainty k = 0.038017
        25        26        27        57     9      180.000000        0.146673         4    ;  uncertainty k = 0.025666
        27        26        25        54     9        0.000000       -0.261676         1    ;  uncertainty k = 0.315638
        27        26        25        54     9      180.000000        6.874962         2    ;  uncertainty k = 0.342650
        27        26        25        54     9        0.000000        0.656534         3    ;  uncertainty k = 0.284603
        27        26        25        54     9      180.000000        0.765991         4    ;  uncertainty k = 0.276600
        28        26        25        54     9        0.000000        0.224607         1    ;  uncertainty k = 0.474804
        28        26        25        54     9      180.000000        8.441723         2    ;  uncertainty k = 0.328864
        28        26        25        54     9        0.000000        1.108367         3    ;  uncertainty k = 0.321335
        28        26        25        54     9      180.000000        1.600213         4    ;  uncertainty k = 0.093449
        28        26        27        55     9        0.000000        0.603365         1    ;  uncertainty k = 0.264621
        28        26        27        55     9      180.000000        3.634560         2    ;  uncertainty k = 0.065840
        28        26        27        55     9        0.000000        0.492173         3    ;  uncertainty k = 0.029988
        28        26        27        55     9      180.000000        0.275108         4    ;  uncertainty k = 0.045162
        28        26        27        56     9        0.000000        0.603365         1    ;  uncertainty k = 0.264621
        28        26        27        56     9      180.000000        3.634560         2    ;  uncertainty k = 0.065840
        28        26        27        56     9        0.000000        0.492173         3    ;  uncertainty k = 0.029988
        28        26        27        56     9      180.000000        0.275108         4    ;  uncertainty k = 0.045162
        28        26        27        57     9        0.000000        0.603365         1    ;  uncertainty k = 0.264621
        28        26        27        57     9      180.000000        3.634560         2    ;  uncertainty k = 0.065840
        28        26        27        57     9        0.000000        0.492173         3    ;  uncertainty k = 0.029988
        28        26        27        57     9      180.000000        0.275108         4    ;  uncertainty k = 0.045162
        29         8         7        39     9        0.000000        0.136922         1    ;  uncertainty k = 0.550487
        29         8         7        39     9      180.000000        8.182224         2    ;  uncertainty k = 0.341676
        29         8         7        39     9        0.000000        0.841902         3    ;  uncertainty k = 0.125230
        29         8         7        39     9      180.000000        1.362477         4    ;  uncertainty k = 0.194831
        29        30        31        32     9        0.000000        0.018498         1    ;  uncertainty k = 0.518317
        29        30        31        32     9      180.000000       24.366317         2    ;  uncertainty k = 0.356973
        29        30        31        32     9        0.000000       -9.743427         3    ;  uncertainty k = 1.822102
        29        30        31        32     9      180.000000        2.415357         4    ;  uncertainty k = 0.669504
        29        30        31        58     9        0.000000        0.242618         1    ;  uncertainty k = 0.727375
        29        30        31        58     9      180.000000       22.022104         2    ;  uncertainty k = 0.478025
        29        30        31        58     9        0.000000        1.424782         3    ;  uncertainty k = 0.389500
        29        30        31        58     9      180.000000        1.215300         4    ;  uncertainty k = 0.593752
        29        33        32        31     9        0.000000        0.018498         1    ;  uncertainty k = 0.518317
        29        33        32        31     9      180.000000       24.366317         2    ;  uncertainty k = 0.356973
        29        33        32        31     9        0.000000       -9.743427         3    ;  uncertainty k = 1.822102
        29        33        32        31     9      180.000000        2.415357         4    ;  uncertainty k = 0.669504
        29        33        32        59     9        0.000000        0.242618         1    ;  uncertainty k = 0.727375
        29        33        32        59     9      180.000000       22.022104         2    ;  uncertainty k = 0.478025
        29        33        32        59     9        0.000000        1.424782         3    ;  uncertainty k = 0.389500
        29        33        32        59     9      180.000000        1.215300         4    ;  uncertainty k = 0.593752
        30        29        33        32     9        0.000000       -0.812639         1    ;  uncertainty k = 0.740781
        30        29        33        32     9      180.000000       22.007264         2    ;  uncertainty k = 0.259740
        30        29        33        32     9        0.000000       -8.239643         3    ;  uncertainty k = 1.249766
        30        29        33        32     9      180.000000        1.306013         4    ;  uncertainty k = 0.609846
        30        31        32        33     9        0.000000       -0.480159         1    ;  uncertainty k = 0.926461
        30        31        32        33     9      180.000000       16.735220         2    ;  uncertainty k = 1.309662
        30        31        32        33     9        0.000000      -12.155220         3    ;  uncertainty k = 1.939944
        30        31        32        33     9      180.000000        1.991294         4    ;  uncertainty k = 0.750423
        30        31        32        59     9        0.000000        0.154897         1    ;  uncertainty k = 0.970262
        30        31        32        59     9      180.000000       11.842298         2    ;  uncertainty k = 0.614371
        30        31        32        59     9        0.000000        0.922189         3    ;  uncertainty k = 0.757887
        30        31        32        59     9      180.000000        0.630944         4    ;  uncertainty k = 0.172001
        31        30        29        33     9        0.000000       -0.812639         1    ;  uncertainty k = 0.740781
        31        30        29        33     9      180.000000       22.007264         2    ;  uncertainty k = 0.259740
        31        30        29        33     9        0.000000       -8.239643         3    ;  uncertainty k = 1.249766
        31        30        29        33     9      180.000000        1.306013         4    ;  uncertainty k = 0.609846
        33        32        31        58     9        0.000000        0.154897         1    ;  uncertainty k = 0.970262
        33        32        31        58     9      180.000000       11.842298         2    ;  uncertainty k = 0.614371
        33        32        31        58     9        0.000000        0.922189         3    ;  uncertainty k = 0.757887
        33        32        31        58     9      180.000000        0.630944         4    ;  uncertainty k = 0.172001
        38         6         7        39     9        0.000000       -0.007104         1    ;  uncertainty k = 0.128747
        38         6         7        39     9      180.000000        8.123976         2    ;  uncertainty k = 0.540012
        38         6         7        39     9        0.000000       -0.370919         3    ;  uncertainty k = 0.347277
        38         6         7        39     9      180.000000        0.436096         4    ;  uncertainty k = 0.244934
        41        14        15        43     9        0.000000        0.423998         1    ;  uncertainty k = 0.297943
        41        14        15        43     9      180.000000       -0.322771         2    ;  uncertainty k = 0.253709
        41        14        15        43     9        0.000000        0.343158         3    ;  uncertainty k = 0.128711
        41        14        15        43     9      180.000000       -0.041305         4    ;  uncertainty k = 0.061986
        42        14        15        43     9        0.000000        0.423998         1    ;  uncertainty k = 0.297943
        42        14        15        43     9      180.000000       -0.322771         2    ;  uncertainty k = 0.253709
        42        14        15        43     9        0.000000        0.343158         3    ;  uncertainty k = 0.128711
        42        14        15        43     9      180.000000       -0.041305         4    ;  uncertainty k = 0.061986
        43        15        16        44     9        0.000000        0.359874         1    ;  uncertainty k = 0.316165
        43        15        16        44     9      180.000000       -0.360044         2    ;  uncertainty k = 0.197281
        43        15        16        44     9        0.000000        0.364903         3    ;  uncertainty k = 0.128583
        43        15        16        44     9      180.000000       -0.036803         4    ;  uncertainty k = 0.081429
        43        15        16        45     9        0.000000        0.359874         1    ;  uncertainty k = 0.316165
        43        15        16        45     9      180.000000       -0.360044         2    ;  uncertainty k = 0.197281
        43        15        16        45     9        0.000000        0.364903         3    ;  uncertainty k = 0.128583
        43        15        16        45     9      180.000000       -0.036803         4    ;  uncertainty k = 0.081429
        43        15        19        48     9        0.000000        3.534565         1    ;  uncertainty k = 1.183407
        43        15        19        48     9      180.000000       -0.219653         2    ;  uncertainty k = 0.641097
        43        15        19        48     9        0.000000        0.578188         3    ;  uncertainty k = 0.579178
        43        15        19        48     9      180.000000        0.212498         4    ;  uncertainty k = 0.291708
        46        18        19        48     9        0.000000        0.359873         1    ;  uncertainty k = 0.316164
        46        18        19        48     9      180.000000       -0.360044         2    ;  uncertainty k = 0.197280
        46        18        19        48     9        0.000000        0.364903         3    ;  uncertainty k = 0.128583
        46        18        19        48     9      180.000000       -0.036803         4    ;  uncertainty k = 0.081430
        47        18        19        48     9        0.000000        0.359873         1    ;  uncertainty k = 0.316164
        47        18        19        48     9      180.000000       -0.360044         2    ;  uncertainty k = 0.197280
        47        18        19        48     9        0.000000        0.364903         3    ;  uncertainty k = 0.128583
        47        18        19        48     9      180.000000       -0.036803         4    ;  uncertainty k = 0.081430
        48        19        20        49     9        0.000000        0.423998         1    ;  uncertainty k = 0.297945
        48        19        20        49     9      180.000000       -0.322769         2    ;  uncertainty k = 0.253710
        48        19        20        49     9        0.000000        0.343158         3    ;  uncertainty k = 0.128710
        48        19        20        49     9      180.000000       -0.041305         4    ;  uncertainty k = 0.061986
        48        19        20        50     9        0.000000        0.423998         1    ;  uncertainty k = 0.297945
        48        19        20        50     9      180.000000       -0.322769         2    ;  uncertainty k = 0.253710
        48        19        20        50     9        0.000000        0.343158         3    ;  uncertainty k = 0.128710
        48        19        20        50     9      180.000000       -0.041305         4    ;  uncertainty k = 0.061986
        58        31        32        59     9        0.000000       -0.942648         1    ;  uncertainty k = 1.117582
        58        31        32        59     9      180.000000        4.272735         2    ;  uncertainty k = 0.760818
        58        31        32        59     9        0.000000        1.314863         3    ;  uncertainty k = 0.353594
        58        31        32        59     9      180.000000        0.150448         4    ;  uncertainty k = 0.159865

[ dihedrals ] ; impropers
;       ai        aj        ak        al funct           phase               k        pn
         2         1         3         4     4      180.000000       55.526555         2    ;  uncertainty k = 0.018659
         2         3         4         1     4      180.000000       55.526555         2    ;  uncertainty k = 0.018659
         2         4         1         3     4      180.000000       55.526555         2    ;  uncertainty k = 0.018659
         4         2         5        37     4      180.000000        0.291294         2    ;  uncertainty k = 0.506476
         4         5        37         2     4      180.000000        0.291294         2    ;  uncertainty k = 0.506476
         4        37         2         5     4      180.000000        0.291294         2    ;  uncertainty k = 0.506476
         5         4         6        10     4      180.000000       17.358652         2    ;  uncertainty k = 0.142440
         5         6        10         4     4      180.000000       17.358652         2    ;  uncertainty k = 0.142440
         5        10         4         6     4      180.000000       17.358652         2    ;  uncertainty k = 0.142440
         6         5         7        38     4      180.000000        3.013041         2    ;  uncertainty k = 0.134557
         6         7        38         5     4      180.000000        3.013041         2    ;  uncertainty k = 0.134557
         6        38         5         7     4      180.000000        3.013041         2    ;  uncertainty k = 0.134557
         7         6         8        39     4      180.000000        3.456969         2    ;  uncertainty k = 0.237778
         7         8        39         6     4      180.000000        3.456969         2    ;  uncertainty k = 0.237778
         7        39         6         8     4      180.000000        3.456969         2    ;  uncertainty k = 0.237778
         8         7         9        29     4      180.000000       10.526412         2    ;  uncertainty k = 0.303990
         8         9        29         7     4      180.000000       10.526412         2    ;  uncertainty k = 0.303990
         8        29         7         9     4      180.000000       10.526412         2    ;  uncertainty k = 0.303990
         9         8        10        11     4      180.000000       11.494395         2    ;  uncertainty k = 0.166798
         9        10        11         8     4      180.000000       11.494395         2    ;  uncertainty k = 0.166798
         9        11         8        10     4      180.000000       11.494395         2    ;  uncertainty k = 0.166798
        10         5         9        40     4      180.000000        3.536133         2    ;  uncertainty k = 0.287910
        10         9        40         5     4      180.000000        3.536133         2    ;  uncertainty k = 0.287910
        10        40         5         9     4      180.000000        3.536133         2    ;  uncertainty k = 0.287910
        11         9        12        13     4      180.000000       51.526077         2    ;  uncertainty k = 0.076173
        11        12        13         9     4      180.000000       51.526077         2    ;  uncertainty k = 0.076173
        11        13         9        12     4      180.000000       51.526077         2    ;  uncertainty k = 0.076173
        17        16        18        21     4      180.000000        0.056061         2    ;  uncertainty k = 0.081764
        17        18        21        16     4      180.000000        0.056061         2    ;  uncertainty k = 0.081764
        17        21        16        18     4      180.000000        0.056061         2    ;  uncertainty k = 0.081764
        21        17        22        28     4      180.000000       42.641376         2    ;  uncertainty k = 0.061085
        21        22        28        17     4      180.000000       42.641376         2    ;  uncertainty k = 0.061085
        21        28        17        22     4      180.000000       42.641376         2    ;  uncertainty k = 0.061085
        23        22        24        25     4      180.000000       31.911127         2    ;  uncertainty k = 0.074029
        23        24        25        22     4      180.000000       31.911127         2    ;  uncertainty k = 0.074029
        23        25        22        24     4      180.000000       31.911127         2    ;  uncertainty k = 0.074029
        25        23        26        54     4      180.000000        1.149574         2    ;  uncertainty k = 0.472329
        25        26        54        23     4      180.000000        1.149574         2    ;  uncertainty k = 0.472329
        25        54        23        26     4      180.000000        1.149574         2    ;  uncertainty k = 0.472329
        26        25        27        28     4      180.000000       31.911121         2    ;  uncertainty k = 0.074029
        26        27        28        25     4      180.000000       31.911121         2    ;  uncertainty k = 0.074029
        26        28        25        27     4      180.000000       31.911121         2    ;  uncertainty k = 0.074029
        31        30        32        58     4      180.000000        0.414726         2    ;  uncertainty k = 0.408832
        31        32        58        30     4      180.000000        0.414726         2    ;  uncertainty k = 0.408832
        31        58        30        32     4      180.000000        0.414726         2    ;  uncertainty k = 0.408832
        32        31        33        59     4      180.000000        0.414726         2    ;  uncertainty k = 0.408832
        32        33        59        31     4      180.000000        0.414726         2    ;  uncertainty k = 0.408832
        32        59        31        33     4      180.000000        0.414726         2    ;  uncertainty k = 0.408832

[ pairs ]
;       ai        aj funct
         1         5     1
         1        37     1
         2         6     1
         2        10     1
         3         5     1
         3        34     1
         3        35     1
         3        36     1
         3        37     1
         4         7     1
         4         9     1
         4        34     1
         4        35     1
         4        36     1
         4        38     1
         4        40     1
         5         8     1
         5        11     1
         5        39     1
         6         9     1
         6        29     1
         6        37     1
         6        40     1
         7        10     1
         7        11     1
         7        30     1
         7        33     1
         8        12     1
         8        13     1
         8        31     1
         8        32     1
         8        38     1
         8        40     1
         9        14     1
         9        20     1
         9        30     1
         9        33     1
         9        39     1
        10        12     1
        10        13     1
        10        29     1
        10        37     1
        10        38     1
        11        15     1
        11        19     1
        11        29     1
        11        40     1
        11        41     1
        11        42     1
        11        49     1
        11        50     1
        12        14     1
        12        20     1
        13        16     1
        13        18     1
        13        43     1
        13        48     1
        14        17     1
        14        18     1
        14        44     1
        14        45     1
        14        48     1
        14        49     1
        14        50     1
        15        21     1
        15        46     1
        15        47     1
        15        49     1
        15        50     1
        16        20     1
        16        22     1
        16        28     1
        16        41     1
        16        42     1
        16        46     1
        16        47     1
        16        48     1
        17        20     1
        17        23     1
        17        26     1
        17        43     1
        17        48     1
        18        22     1
        18        28     1
        18        43     1
        18        44     1
        18        45     1
        18        49     1
        18        50     1
        19        21     1
        19        41     1
        19        42     1
        19        44     1
        19        45     1
        20        41     1
        20        42     1
        20        43     1
        20        46     1
        20        47     1
        21        24     1
        21        25     1
        21        27     1
        21        44     1
        21        45     1
        21        46     1
        21        47     1
        22        26     1
        22        51     1
        22        52     1
        22        53     1
        22        54     1
        23        27     1
        23        28     1
        24        26     1
        24        54     1
        25        51     1
        25        52     1
        25        53     1
        25        55     1
        25        56     1
        25        57     1
        27        54     1
        28        54     1
        28        55     1
        28        56     1
        28        57     1
        29        39     1
        29        58     1
        29        59     1
        30        59     1
        33        58     1
        38        39     1
        41        43     1
        42        43     1
        43        44     1
        43        45     1
        43        48     1
        46        48     1
        47        48     1
        48        49     1
        48        50     1
        58        59     1
