; ITP file created by ByteFF-joint-25, 2025-07-14 11:28:45.339740

[ atomtypes ]
;name           bonded.type        at.num        mass        charge   ptype           sigma         epsilon
 c0bf                                   6      0.0000       0.00000       A     3.39776e-01     4.50802e-01    ;  uncertainty sigma = 0.000006, epsilon = 0.000337
 o1bf                                   8      0.0000       0.00000       A     3.15611e-01     3.03061e-01    ;  uncertainty sigma = 0.000044, epsilon = 0.001117
 c2bf                                   6      0.0000       0.00000       A     3.31500e-01     4.13896e-01    ;  uncertainty sigma = 0.000009, epsilon = 0.000924
 c3bf                                   6      0.0000       0.00000       A     3.31517e-01     4.12998e-01    ;  uncertainty sigma = 0.000003, epsilon = 0.000875
 c4bf                                   6      0.0000       0.00000       A     3.39770e-01     4.50850e-01    ;  uncertainty sigma = 0.000005, epsilon = 0.000539
 n5bf                                   7      0.0000       0.00000       A     3.38408e-01     3.93503e-01    ;  uncertainty sigma = 0.000010, epsilon = 0.001433
 c6bf                                   6      0.0000       0.00000       A     3.31554e-01     4.13359e-01    ;  uncertainty sigma = 0.000016, epsilon = 0.000720
 n7bf                                   7      0.0000       0.00000       A     3.38408e-01     3.93503e-01    ;  uncertainty sigma = 0.000010, epsilon = 0.001433
 c8bf                                   6      0.0000       0.00000       A     3.31517e-01     4.12998e-01    ;  uncertainty sigma = 0.000003, epsilon = 0.000875
 c9bf                                   6      0.0000       0.00000       A     3.39770e-01     4.50850e-01    ;  uncertainty sigma = 0.000005, epsilon = 0.000538
 n10bf                                  7      0.0000       0.00000       A     3.18950e-01     8.99076e-01    ;  uncertainty sigma = 0.000052, epsilon = 0.003577
 c11bf                                  6      0.0000       0.00000       A     3.39774e-01     4.50953e-01    ;  uncertainty sigma = 0.000012, epsilon = 0.001229
 c12bf                                  6      0.0000       0.00000       A     3.39776e-01     4.51373e-01    ;  uncertainty sigma = 0.000009, epsilon = 0.000969
 c13bf                                  6      0.0000       0.00000       A     3.39784e-01     4.51219e-01    ;  uncertainty sigma = 0.000006, epsilon = 0.000696
 n14bf                                  7      0.0000       0.00000       A     3.18086e-01     6.84039e-01    ;  uncertainty sigma = 0.000014, epsilon = 0.001467
 c15bf                                  6      0.0000       0.00000       A     3.39784e-01     4.51219e-01    ;  uncertainty sigma = 0.000006, epsilon = 0.000696
 c16bf                                  6      0.0000       0.00000       A     3.39776e-01     4.51373e-01    ;  uncertainty sigma = 0.000009, epsilon = 0.000969
 c17bf                                  6      0.0000       0.00000       A     3.39774e-01     4.50953e-01    ;  uncertainty sigma = 0.000012, epsilon = 0.001229
 c18bf                                  6      0.0000       0.00000       A     3.31486e-01     4.13134e-01    ;  uncertainty sigma = 0.000026, epsilon = 0.002146
 o19bf                                  8      0.0000       0.00000       A     3.04851e-01     6.12019e-01    ;  uncertainty sigma = 0.000026, epsilon = 0.001020
 c20bf                                  6      0.0000       0.00000       A     3.31488e-01     4.12415e-01    ;  uncertainty sigma = 0.000034, epsilon = 0.001171
 c21bf                                  6      0.0000       0.00000       A     3.31513e-01     4.12834e-01    ;  uncertainty sigma = 0.000016, epsilon = 0.001291
 f22bf                                  9      0.0000       0.00000       A     3.03451e-01     3.47872e-01    ;  uncertainty sigma = 0.000029, epsilon = 0.000470
 c23bf                                  6      0.0000       0.00000       A     3.31522e-01     4.13335e-01    ;  uncertainty sigma = 0.000005, epsilon = 0.000662
 c24bf                                  6      0.0000       0.00000       A     3.31521e-01     4.13421e-01    ;  uncertainty sigma = 0.000006, epsilon = 0.000781
 c25bf                                  6      0.0000       0.00000       A     3.31510e-01     4.13240e-01    ;  uncertainty sigma = 0.000014, epsilon = 0.000923
 c26bf                                  6      0.0000       0.00000       A     3.31553e-01     4.13601e-01    ;  uncertainty sigma = 0.000013, epsilon = 0.001582
 n27bf                                  7      0.0000       0.00000       A     3.20569e-01     8.54049e-01    ;  uncertainty sigma = 0.000030, epsilon = 0.002792
 n28bf                                  7      0.0000       0.00000       A     3.38413e-01     3.93694e-01    ;  uncertainty sigma = 0.000010, epsilon = 0.000693
 c29bf                                  6      0.0000       0.00000       A     3.31537e-01     4.13587e-01    ;  uncertainty sigma = 0.000007, epsilon = 0.000835
 c30bf                                  6      0.0000       0.00000       A     3.31537e-01     4.13587e-01    ;  uncertainty sigma = 0.000007, epsilon = 0.000835
 n31bf                                  7      0.0000       0.00000       A     3.38413e-01     3.93694e-01    ;  uncertainty sigma = 0.000010, epsilon = 0.000693
 h32bf                                  1      0.0000       0.00000       A     2.42205e-01     8.67538e-02    ;  uncertainty sigma = 0.000015, epsilon = 0.000624
 h33bf                                  1      0.0000       0.00000       A     2.42205e-01     8.67538e-02    ;  uncertainty sigma = 0.000015, epsilon = 0.000624
 h34bf                                  1      0.0000       0.00000       A     2.42205e-01     8.67538e-02    ;  uncertainty sigma = 0.000015, epsilon = 0.000624
 h35bf                                  1      0.0000       0.00000       A     2.60027e-01     8.66552e-02    ;  uncertainty sigma = 0.000009, epsilon = 0.000548
 h36bf                                  1      0.0000       0.00000       A     2.60027e-01     8.66552e-02    ;  uncertainty sigma = 0.000009, epsilon = 0.000548
 h37bf                                  1      0.0000       0.00000       A     2.60027e-01     8.66552e-02    ;  uncertainty sigma = 0.000009, epsilon = 0.000548
 h38bf                                  1      0.0000       0.00000       A     2.60027e-01     8.66552e-02    ;  uncertainty sigma = 0.000009, epsilon = 0.000548
 h39bf                                  1      0.0000       0.00000       A     2.60027e-01     8.66552e-02    ;  uncertainty sigma = 0.000009, epsilon = 0.000548
 h40bf                                  1      0.0000       0.00000       A     2.60027e-01     8.66552e-02    ;  uncertainty sigma = 0.000009, epsilon = 0.000548
 h41bf                                  1      0.0000       0.00000       A     2.42199e-01     8.66324e-02    ;  uncertainty sigma = 0.000024, epsilon = 0.001250
 h42bf                                  1      0.0000       0.00000       A     2.42199e-01     8.66324e-02    ;  uncertainty sigma = 0.000024, epsilon = 0.001250
 h43bf                                  1      0.0000       0.00000       A     2.59994e-01     8.68892e-02    ;  uncertainty sigma = 0.000026, epsilon = 0.000553
 h44bf                                  1      0.0000       0.00000       A     2.42194e-01     8.66543e-02    ;  uncertainty sigma = 0.000021, epsilon = 0.000863
 h45bf                                  1      0.0000       0.00000       A     2.42194e-01     8.66543e-02    ;  uncertainty sigma = 0.000021, epsilon = 0.000863
 h46bf                                  1      0.0000       0.00000       A     2.42194e-01     8.66545e-02    ;  uncertainty sigma = 0.000021, epsilon = 0.000863
 h47bf                                  1      0.0000       0.00000       A     2.42194e-01     8.66545e-02    ;  uncertainty sigma = 0.000021, epsilon = 0.000863
 h48bf                                  1      0.0000       0.00000       A     2.59994e-01     8.68892e-02    ;  uncertainty sigma = 0.000026, epsilon = 0.000553
 h49bf                                  1      0.0000       0.00000       A     2.42199e-01     8.66324e-02    ;  uncertainty sigma = 0.000024, epsilon = 0.001250
 h50bf                                  1      0.0000       0.00000       A     2.42199e-01     8.66324e-02    ;  uncertainty sigma = 0.000024, epsilon = 0.001250
 h51bf                                  1      0.0000       0.00000       A     2.62565e-01     6.70682e-02    ;  uncertainty sigma = 0.000010, epsilon = 0.000430
 h52bf                                  1      0.0000       0.00000       A     2.62565e-01     6.69658e-02    ;  uncertainty sigma = 0.000011, epsilon = 0.000532
 h53bf                                  1      0.0000       0.00000       A     2.62555e-01     6.71502e-02    ;  uncertainty sigma = 0.000013, epsilon = 0.000465
 h54bf                                  1      0.0000       0.00000       A     2.53604e-01     6.70805e-02    ;  uncertainty sigma = 0.000028, epsilon = 0.000600
 h55bf                                  1      0.0000       0.00000       A     2.53604e-01     6.70805e-02    ;  uncertainty sigma = 0.000028, epsilon = 0.000600

[ moleculetype ]
;name             nrexcl
 MOL                   3

[ atoms ]
;       nr            type      resi   res      atom      cgnr      charge          mass ; qtot
         1            c0bf         1   UNL        c0         1     0.11824       12.0110 ; qtot    0.118
         2            o1bf         1   UNL        o1         2    -0.33404       15.9990 ; qtot   -0.216
         3            c2bf         1   UNL        c2         3    -0.19162       12.0110 ; qtot   -0.407
         4            c3bf         1   UNL        c3         4     0.46911       12.0110 ; qtot    0.062
         5            c4bf         1   UNL        c4         5    -0.14913       12.0110 ; qtot   -0.087
         6            n5bf         1   UNL        n5         6    -0.76633       14.0070 ; qtot   -0.854
         7            c6bf         1   UNL        c6         7     0.90365       12.0110 ; qtot    0.050
         8            n7bf         1   UNL        n7         8    -0.76633       14.0070 ; qtot   -0.716
         9            c8bf         1   UNL        c8         9     0.46911       12.0110 ; qtot   -0.247
        10            c9bf         1   UNL        c9        10    -0.14913       12.0110 ; qtot   -0.396
        11           n10bf         1   UNL       n10        11    -0.79051       14.0070 ; qtot   -1.187
        12           c11bf         1   UNL       c11        12     0.23390       12.0110 ; qtot   -0.953
        13           c12bf         1   UNL       c12        13    -0.09743       12.0110 ; qtot   -1.051
        14           c13bf         1   UNL       c13        14     0.11057       12.0110 ; qtot   -0.940
        15           n14bf         1   UNL       n14        15    -0.47239       14.0070 ; qtot   -1.412
        16           c15bf         1   UNL       c15        16     0.11057       12.0110 ; qtot   -1.302
        17           c16bf         1   UNL       c16        17    -0.09743       12.0110 ; qtot   -1.399
        18           c17bf         1   UNL       c17        18     0.23390       12.0110 ; qtot   -1.165
        19           c18bf         1   UNL       c18        19     0.70764       12.0110 ; qtot   -0.458
        20           o19bf         1   UNL       o19        20    -0.58293       15.9990 ; qtot   -1.041
        21           c20bf         1   UNL       c20        21    -0.15596       12.0110 ; qtot   -1.197
        22           c21bf         1   UNL       c21        22     0.16292       12.0110 ; qtot   -1.034
        23           f22bf         1   UNL       f22        23    -0.13494       18.9980 ; qtot   -1.169
        24           c23bf         1   UNL       c23        24    -0.15817       12.0110 ; qtot   -1.327
        25           c24bf         1   UNL       c24        25    -0.08197       12.0110 ; qtot   -1.409
        26           c25bf         1   UNL       c25        26    -0.13048       12.0110 ; qtot   -1.539
        27           c26bf         1   UNL       c26        27     0.07222       12.0110 ; qtot   -1.467
        28           n27bf         1   UNL       n27        28     0.30201       14.0070 ; qtot   -1.165
        29           n28bf         1   UNL       n28        29    -0.47243       14.0070 ; qtot   -1.637
        30           c29bf         1   UNL       c29        30     0.20275       12.0110 ; qtot   -1.435
        31           c30bf         1   UNL       c30        31     0.20275       12.0110 ; qtot   -1.232
        32           n31bf         1   UNL       n31        32    -0.47243       14.0070 ; qtot   -1.704
        33           h32bf         1   UNL       h32        33     0.04502        1.0080 ; qtot   -1.659
        34           h33bf         1   UNL       h33        34     0.04502        1.0080 ; qtot   -1.614
        35           h34bf         1   UNL       h34        35     0.04502        1.0080 ; qtot   -1.569
        36           h35bf         1   UNL       h35        36     0.06200        1.0080 ; qtot   -1.507
        37           h36bf         1   UNL       h36        37     0.06200        1.0080 ; qtot   -1.445
        38           h37bf         1   UNL       h37        38     0.06200        1.0080 ; qtot   -1.383
        39           h38bf         1   UNL       h38        39     0.06200        1.0080 ; qtot   -1.321
        40           h39bf         1   UNL       h39        40     0.06200        1.0080 ; qtot   -1.259
        41           h40bf         1   UNL       h40        41     0.06200        1.0080 ; qtot   -1.197
        42           h41bf         1   UNL       h41        42     0.05891        1.0080 ; qtot   -1.138
        43           h42bf         1   UNL       h42        43     0.05891        1.0080 ; qtot   -1.079
        44           h43bf         1   UNL       h43        44     0.07237        1.0080 ; qtot   -1.007
        45           h44bf         1   UNL       h44        45     0.05981        1.0080 ; qtot   -0.947
        46           h45bf         1   UNL       h45        46     0.05981        1.0080 ; qtot   -0.887
        47           h46bf         1   UNL       h46        47     0.05981        1.0080 ; qtot   -0.828
        48           h47bf         1   UNL       h47        48     0.05981        1.0080 ; qtot   -0.768
        49           h48bf         1   UNL       h48        49     0.07237        1.0080 ; qtot   -0.695
        50           h49bf         1   UNL       h49        50     0.05891        1.0080 ; qtot   -0.637
        51           h50bf         1   UNL       h50        51     0.05891        1.0080 ; qtot   -0.578
        52           h51bf         1   UNL       h51        52     0.15846        1.0080 ; qtot   -0.419
        53           h52bf         1   UNL       h52        53     0.14574        1.0080 ; qtot   -0.273
        54           h53bf         1   UNL       h53        54     0.16350        1.0080 ; qtot   -0.110
        55           h54bf         1   UNL       h54        55     0.05496        1.0080 ; qtot   -0.055
        56           h55bf         1   UNL       h55        56     0.05497        1.0080 ; qtot    0.000

[ bonds ]
;       ai        aj funct               r               k
         1         2     1        0.143312   245309.268359    ;  uncertainty r = 0.000146, k = 4.593009
         1        33     1        0.109533   311966.307861    ;  uncertainty r = 0.000033, k = 1.857975
         1        34     1        0.109533   311966.307861    ;  uncertainty r = 0.000033, k = 1.857975
         1        35     1        0.109533   311966.307861    ;  uncertainty r = 0.000033, k = 1.857975
         2         3     1        0.137890   333374.092188    ;  uncertainty r = 0.000158, k = 17.985226
         3         4     1        0.140514   370842.905176    ;  uncertainty r = 0.000092, k = 19.320493
         3         9     1        0.140514   370842.956250    ;  uncertainty r = 0.000092, k = 19.320516
         4         5     1        0.150524   237492.410254    ;  uncertainty r = 0.000031, k = 6.837721
         4         6     1        0.134020   435374.312305    ;  uncertainty r = 0.000191, k = 19.869595
         5        36     1        0.109374   311116.228564    ;  uncertainty r = 0.000021, k = 0.952105
         5        37     1        0.109374   311116.228564    ;  uncertainty r = 0.000021, k = 0.952105
         5        38     1        0.109374   311116.228564    ;  uncertainty r = 0.000021, k = 0.952105
         6         7     1        0.135233   485284.753906    ;  uncertainty r = 0.000200, k = 20.791015
         7         8     1        0.135233   485284.753906    ;  uncertainty r = 0.000200, k = 20.791052
         7        11     1        0.136912   319164.887012    ;  uncertainty r = 0.000129, k = 25.282137
         8         9     1        0.134020   435374.312305    ;  uncertainty r = 0.000191, k = 19.869606
         9        10     1        0.150524   237492.410254    ;  uncertainty r = 0.000031, k = 6.837723
        10        39     1        0.109374   311116.228564    ;  uncertainty r = 0.000021, k = 0.952136
        10        40     1        0.109374   311116.228564    ;  uncertainty r = 0.000021, k = 0.952136
        10        41     1        0.109374   311116.228564    ;  uncertainty r = 0.000021, k = 0.952136
        11        12     1        0.146381   223708.423486    ;  uncertainty r = 0.000058, k = 14.342742
        11        18     1        0.146381   223708.423486    ;  uncertainty r = 0.000058, k = 14.342733
        12        13     1        0.153378   218045.467334    ;  uncertainty r = 0.000067, k = 7.088220
        12        42     1        0.109551   306518.450781    ;  uncertainty r = 0.000069, k = 2.534282
        12        43     1        0.109551   306518.450781    ;  uncertainty r = 0.000069, k = 2.534282
        13        14     1        0.153480   216617.049121    ;  uncertainty r = 0.000023, k = 7.412723
        13        17     1        0.154451   200722.496875    ;  uncertainty r = 0.000080, k = 20.796785
        13        44     1        0.109350   305021.261133    ;  uncertainty r = 0.000029, k = 3.829702
        14        15     1        0.146976   241154.380664    ;  uncertainty r = 0.000047, k = 15.575172
        14        45     1        0.109439   307434.875488    ;  uncertainty r = 0.000026, k = 1.171544
        14        46     1        0.109439   307434.875488    ;  uncertainty r = 0.000026, k = 1.171544
        15        16     1        0.146976   241154.380664    ;  uncertainty r = 0.000047, k = 15.575144
        15        19     1        0.135088   335723.021045    ;  uncertainty r = 0.000166, k = 15.024462
        16        17     1        0.153480   216617.074658    ;  uncertainty r = 0.000023, k = 7.412680
        16        47     1        0.109439   307434.875488    ;  uncertainty r = 0.000026, k = 1.171521
        16        48     1        0.109439   307434.875488    ;  uncertainty r = 0.000026, k = 1.171521
        17        18     1        0.153378   218045.441797    ;  uncertainty r = 0.000067, k = 7.088228
        17        49     1        0.109350   305021.261133    ;  uncertainty r = 0.000029, k = 3.829660
        18        50     1        0.109551   306518.450781    ;  uncertainty r = 0.000069, k = 2.534287
        18        51     1        0.109551   306518.450781    ;  uncertainty r = 0.000069, k = 2.534287
        19        20     1        0.123492   739384.865723    ;  uncertainty r = 0.000039, k = 10.151716
        19        21     1        0.151093   272101.603271    ;  uncertainty r = 0.000079, k = 31.154101
        21        22     1        0.139399   331888.649609    ;  uncertainty r = 0.000087, k = 16.801357
        21        27     1        0.139529   322378.221484    ;  uncertainty r = 0.000112, k = 6.618765
        22        23     1        0.135284   339697.693359    ;  uncertainty r = 0.000139, k = 6.883764
        22        24     1        0.138876   355374.082080    ;  uncertainty r = 0.000029, k = 4.848304
        24        25     1        0.139230   385818.044873    ;  uncertainty r = 0.000031, k = 3.156029
        24        52     1        0.108754   335743.833789    ;  uncertainty r = 0.000014, k = 1.461762
        25        26     1        0.139117   371572.781299    ;  uncertainty r = 0.000042, k = 2.923689
        25        53     1        0.108705   332118.687891    ;  uncertainty r = 0.000011, k = 1.593644
        26        27     1        0.139176   333973.831201    ;  uncertainty r = 0.000089, k = 2.958672
        26        54     1        0.108623   333131.336426    ;  uncertainty r = 0.000019, k = 1.837628
        27        28     1        0.140554   317671.476855    ;  uncertainty r = 0.000102, k = 8.472881
        28        29     1        0.134456   229486.015723    ;  uncertainty r = 0.000080, k = 10.859863
        28        32     1        0.134456   229486.015723    ;  uncertainty r = 0.000080, k = 10.859863
        29        30     1        0.132965   463550.937305    ;  uncertainty r = 0.000052, k = 7.730519
        30        31     1        0.141781   249584.001709    ;  uncertainty r = 0.000103, k = 15.332670
        30        55     1        0.108418   339910.136572    ;  uncertainty r = 0.000037, k = 1.124302
        31        32     1        0.132965   463550.937305    ;  uncertainty r = 0.000052, k = 7.730519
        31        56     1        0.108418   339910.136572    ;  uncertainty r = 0.000037, k = 1.124302

[ angles ]
;       ai        aj        ak funct           theta             cth
         1         2         3     1      112.416336      502.072083    ;  uncertainty theta = 0.007245, k = 0.110773
         2         1        33     1      109.307114      441.360096    ;  uncertainty theta = 0.002140, k = 0.025238
         2         1        34     1      109.307114      441.360096    ;  uncertainty theta = 0.002140, k = 0.025238
         2         1        35     1      109.307114      441.360096    ;  uncertainty theta = 0.002140, k = 0.025238
         2         3         4     1      118.087906      388.293185    ;  uncertainty theta = 0.005152, k = 0.193557
         2         3         9     1      118.087906      388.293216    ;  uncertainty theta = 0.005152, k = 0.193557
         3         4         5     1      119.772423      373.956651    ;  uncertainty theta = 0.004670, k = 0.117021
         3         4         6     1      121.152687      614.681415    ;  uncertainty theta = 0.005273, k = 0.077539
         3         9         8     1      121.152687      614.681415    ;  uncertainty theta = 0.005273, k = 0.077540
         3         9        10     1      119.772423      373.956715    ;  uncertainty theta = 0.004670, k = 0.117020
         4         3         9     1      122.061600      389.172714    ;  uncertainty theta = 0.005474, k = 0.534425
         4         5        36     1      108.904457      385.413620    ;  uncertainty theta = 0.001350, k = 0.083607
         4         5        37     1      108.904457      385.413620    ;  uncertainty theta = 0.001350, k = 0.083607
         4         5        38     1      108.904457      385.413620    ;  uncertainty theta = 0.001350, k = 0.083607
         4         6         7     1      117.538040      419.061475    ;  uncertainty theta = 0.007297, k = 0.188501
         5         4         6     1      119.714798      527.057144    ;  uncertainty theta = 0.002614, k = 0.160485
         6         7         8     1      128.411057      710.289671    ;  uncertainty theta = 0.005737, k = 0.148763
         6         7        11     1      119.569458      550.575354    ;  uncertainty theta = 0.008109, k = 0.138272
         7         8         9     1      117.538040      419.061475    ;  uncertainty theta = 0.007297, k = 0.188502
         7        11        12     1      113.605774      434.110525    ;  uncertainty theta = 0.002879, k = 0.213224
         7        11        18     1      113.605774      434.110494    ;  uncertainty theta = 0.002879, k = 0.213224
         8         7        11     1      119.569458      550.575354    ;  uncertainty theta = 0.008109, k = 0.138272
         8         9        10     1      119.714798      527.057144    ;  uncertainty theta = 0.002614, k = 0.160485
         9        10        39     1      108.904457      385.413652    ;  uncertainty theta = 0.001350, k = 0.083607
         9        10        40     1      108.904457      385.413652    ;  uncertainty theta = 0.001350, k = 0.083607
         9        10        41     1      108.904457      385.413652    ;  uncertainty theta = 0.001350, k = 0.083607
        11        12        13     1      105.543358      834.662672    ;  uncertainty theta = 0.001817, k = 0.093259
        11        12        42     1      108.562340      456.415818    ;  uncertainty theta = 0.001202, k = 0.062362
        11        12        43     1      108.562340      456.415818    ;  uncertainty theta = 0.001202, k = 0.062362
        11        18        17     1      105.543358      834.662672    ;  uncertainty theta = 0.001817, k = 0.093260
        11        18        50     1      108.562340      456.415882    ;  uncertainty theta = 0.001202, k = 0.062362
        11        18        51     1      108.562340      456.415882    ;  uncertainty theta = 0.001202, k = 0.062362
        12        11        18     1      112.639450      489.228386    ;  uncertainty theta = 0.009972, k = 0.334405
        12        13        14     1      113.001526      495.885112    ;  uncertainty theta = 0.002967, k = 0.272650
        12        13        17     1      106.407143      696.228300    ;  uncertainty theta = 0.000820, k = 0.121960
        12        13        44     1      108.909218      387.529593    ;  uncertainty theta = 0.002428, k = 0.196423
        13        12        42     1      109.942749      401.681046    ;  uncertainty theta = 0.001744, k = 0.042629
        13        12        43     1      109.942749      401.681046    ;  uncertainty theta = 0.001744, k = 0.042629
        13        14        15     1      106.005104      800.142884    ;  uncertainty theta = 0.002837, k = 0.185313
        13        14        45     1      109.812805      398.157914    ;  uncertainty theta = 0.002056, k = 0.096133
        13        14        46     1      109.812805      398.157914    ;  uncertainty theta = 0.002056, k = 0.096133
        13        17        16     1      106.536072      683.535718    ;  uncertainty theta = 0.002057, k = 0.120116
        13        17        18     1      106.407143      696.228492    ;  uncertainty theta = 0.000820, k = 0.121960
        13        17        49     1      109.787766      408.249925    ;  uncertainty theta = 0.001833, k = 0.098421
        14        13        17     1      106.536072      683.535654    ;  uncertainty theta = 0.002057, k = 0.120117
        14        13        44     1      108.976547      381.109245    ;  uncertainty theta = 0.002391, k = 0.150517
        14        15        16     1      114.311745      540.101883    ;  uncertainty theta = 0.003229, k = 0.142692
        14        15        19     1      117.974327      368.182647    ;  uncertainty theta = 0.003980, k = 0.157584
        15        14        45     1      109.203384      457.892789    ;  uncertainty theta = 0.001598, k = 0.109127
        15        14        46     1      109.203384      457.892789    ;  uncertainty theta = 0.001598, k = 0.109127
        15        16        17     1      106.005104      800.142884    ;  uncertainty theta = 0.002837, k = 0.185312
        15        16        47     1      109.203384      457.892789    ;  uncertainty theta = 0.001598, k = 0.109127
        15        16        48     1      109.203384      457.892789    ;  uncertainty theta = 0.001598, k = 0.109127
        15        19        20     1      124.922256      740.345444    ;  uncertainty theta = 0.002458, k = 0.115631
        15        19        21     1      112.159889      368.733068    ;  uncertainty theta = 0.002788, k = 0.265066
        16        15        19     1      117.974327      368.182647    ;  uncertainty theta = 0.003980, k = 0.157584
        16        17        18     1      113.001526      495.885112    ;  uncertainty theta = 0.002967, k = 0.272650
        16        17        49     1      108.976547      381.109245    ;  uncertainty theta = 0.002391, k = 0.150517
        17        13        44     1      109.787766      408.249925    ;  uncertainty theta = 0.001833, k = 0.098421
        17        16        47     1      109.812805      398.157914    ;  uncertainty theta = 0.002056, k = 0.096133
        17        16        48     1      109.812805      398.157914    ;  uncertainty theta = 0.002056, k = 0.096133
        17        18        50     1      109.942749      401.681014    ;  uncertainty theta = 0.001744, k = 0.042629
        17        18        51     1      109.942749      401.681014    ;  uncertainty theta = 0.001744, k = 0.042629
        18        17        49     1      108.909218      387.529561    ;  uncertainty theta = 0.002428, k = 0.196423
        19        21        22     1      122.644753      394.633059    ;  uncertainty theta = 0.009716, k = 0.281698
        19        21        27     1      121.727440      360.483272    ;  uncertainty theta = 0.007459, k = 0.258991
        20        19        21     1      123.973495      474.716636    ;  uncertainty theta = 0.004986, k = 0.295298
        21        22        23     1      116.293533      481.718082    ;  uncertainty theta = 0.003628, k = 0.151958
        21        22        24     1      125.257851      358.228537    ;  uncertainty theta = 0.006392, k = 0.161234
        21        27        26     1      126.248352      383.964293    ;  uncertainty theta = 0.008470, k = 0.143041
        21        27        28     1      115.625549      424.401189    ;  uncertainty theta = 0.005276, k = 0.425221
        22        21        27     1      120.519875      451.018997    ;  uncertainty theta = 0.010533, k = 0.145475
        22        24        25     1      116.906998      480.293111    ;  uncertainty theta = 0.004692, k = 0.077746
        22        24        52     1      120.257713      280.421849    ;  uncertainty theta = 0.001644, k = 0.051464
        23        22        24     1      119.307655      515.150978    ;  uncertainty theta = 0.004276, k = 0.124646
        24        25        26     1      119.580154      501.480038    ;  uncertainty theta = 0.001152, k = 0.050795
        24        25        53     1      120.085129      283.076623    ;  uncertainty theta = 0.000551, k = 0.029815
        25        24        52     1      122.091469      282.690757    ;  uncertainty theta = 0.001292, k = 0.025850
        25        26        27     1      119.295853      511.815512    ;  uncertainty theta = 0.002200, k = 0.078353
        25        26        54     1      121.511391      292.121324    ;  uncertainty theta = 0.001401, k = 0.054323
        26        25        53     1      119.901108      278.613917    ;  uncertainty theta = 0.000633, k = 0.016225
        26        27        28     1      118.568016      453.799094    ;  uncertainty theta = 0.002843, k = 0.118727
        27        26        54     1      118.140259      263.598991    ;  uncertainty theta = 0.002697, k = 0.141621
        27        28        29     1      116.169716      430.317850    ;  uncertainty theta = 0.006654, k = 0.182017
        27        28        32     1      116.169716      430.317850    ;  uncertainty theta = 0.006654, k = 0.182017
        28        29        30     1      105.336914      920.571231    ;  uncertainty theta = 0.004509, k = 0.170853
        28        32        31     1      105.336914      920.571231    ;  uncertainty theta = 0.004509, k = 0.170853
        29        28        32     1      113.935104     1160.946488    ;  uncertainty theta = 0.004391, k = 0.191360
        29        30        31     1      108.874611      885.375859    ;  uncertainty theta = 0.003815, k = 0.097431
        29        30        55     1      119.790878      274.219077    ;  uncertainty theta = 0.003825, k = 0.115835
        30        31        32     1      108.874611      885.375859    ;  uncertainty theta = 0.003815, k = 0.097431
        30        31        56     1      127.065453      242.460680    ;  uncertainty theta = 0.004115, k = 0.077998
        31        30        55     1      127.065453      242.460680    ;  uncertainty theta = 0.004115, k = 0.077998
        32        31        56     1      119.790878      274.219077    ;  uncertainty theta = 0.003825, k = 0.115835
        33         1        34     1      109.106102      330.239706    ;  uncertainty theta = 0.001195, k = 0.015359
        33         1        35     1      109.106102      330.239706    ;  uncertainty theta = 0.001195, k = 0.015359
        34         1        35     1      109.106102      330.239706    ;  uncertainty theta = 0.001195, k = 0.015359
        36         5        37     1      107.139359      312.954754    ;  uncertainty theta = 0.002292, k = 0.019306
        36         5        38     1      107.139359      312.954754    ;  uncertainty theta = 0.002292, k = 0.019306
        37         5        38     1      107.139359      312.954754    ;  uncertainty theta = 0.002292, k = 0.019306
        39        10        40     1      107.139359      312.954722    ;  uncertainty theta = 0.002292, k = 0.019306
        39        10        41     1      107.139359      312.954722    ;  uncertainty theta = 0.002292, k = 0.019306
        40        10        41     1      107.139359      312.954722    ;  uncertainty theta = 0.002292, k = 0.019306
        42        12        43     1      105.123001      312.324913    ;  uncertainty theta = 0.002382, k = 0.114503
        45        14        46     1      105.371445      309.387890    ;  uncertainty theta = 0.003860, k = 0.079572
        47        16        48     1      105.371445      309.387890    ;  uncertainty theta = 0.003860, k = 0.079571
        50        18        51     1      105.123001      312.324913    ;  uncertainty theta = 0.002382, k = 0.114503

[ dihedrals ] ; propers for gromacs 4.5 or higher, use funct 9
;       ai        aj        ak        al funct           phase               k        pn
         1         2         3         4     9        0.000000        1.266064         1    ;  uncertainty k = 1.072436
         1         2         3         4     9      180.000000        4.293263         2    ;  uncertainty k = 0.281176
         1         2         3         4     9        0.000000        0.231987         3    ;  uncertainty k = 0.398802
         1         2         3         4     9      180.000000       -0.048336         4    ;  uncertainty k = 0.113786
         1         2         3         9     9        0.000000        1.266063         1    ;  uncertainty k = 1.072436
         1         2         3         9     9      180.000000        4.293263         2    ;  uncertainty k = 0.281176
         1         2         3         9     9        0.000000        0.231987         3    ;  uncertainty k = 0.398803
         1         2         3         9     9      180.000000       -0.048336         4    ;  uncertainty k = 0.113786
         2         3         4         5     9        0.000000       -0.431821         1    ;  uncertainty k = 0.564009
         2         3         4         5     9      180.000000       10.808200         2    ;  uncertainty k = 0.650179
         2         3         4         5     9        0.000000        0.584059         3    ;  uncertainty k = 0.245349
         2         3         4         5     9      180.000000        1.196785         4    ;  uncertainty k = 0.330668
         2         3         4         6     9        0.000000        0.379543         1    ;  uncertainty k = 0.393550
         2         3         4         6     9      180.000000       12.364074         2    ;  uncertainty k = 0.562465
         2         3         4         6     9        0.000000        1.092715         3    ;  uncertainty k = 0.148608
         2         3         4         6     9      180.000000        1.318548         4    ;  uncertainty k = 0.485226
         2         3         9         8     9        0.000000        0.379543         1    ;  uncertainty k = 0.393549
         2         3         9         8     9      180.000000       12.364071         2    ;  uncertainty k = 0.562466
         2         3         9         8     9        0.000000        1.092715         3    ;  uncertainty k = 0.148607
         2         3         9         8     9      180.000000        1.318548         4    ;  uncertainty k = 0.485225
         2         3         9        10     9        0.000000       -0.431819         1    ;  uncertainty k = 0.564010
         2         3         9        10     9      180.000000       10.808197         2    ;  uncertainty k = 0.650179
         2         3         9        10     9        0.000000        0.584058         3    ;  uncertainty k = 0.245349
         2         3         9        10     9      180.000000        1.196785         4    ;  uncertainty k = 0.330668
         3         2         1        33     9        0.000000        1.403714         1    ;  uncertainty k = 0.486681
         3         2         1        33     9      180.000000       -2.234971         2    ;  uncertainty k = 0.422260
         3         2         1        33     9        0.000000        0.925749         3    ;  uncertainty k = 0.146520
         3         2         1        33     9      180.000000        0.190176         4    ;  uncertainty k = 0.071197
         3         2         1        34     9        0.000000        1.403714         1    ;  uncertainty k = 0.486681
         3         2         1        34     9      180.000000       -2.234971         2    ;  uncertainty k = 0.422260
         3         2         1        34     9        0.000000        0.925749         3    ;  uncertainty k = 0.146520
         3         2         1        34     9      180.000000        0.190176         4    ;  uncertainty k = 0.071197
         3         2         1        35     9        0.000000        1.403714         1    ;  uncertainty k = 0.486681
         3         2         1        35     9      180.000000       -2.234971         2    ;  uncertainty k = 0.422260
         3         2         1        35     9        0.000000        0.925749         3    ;  uncertainty k = 0.146520
         3         2         1        35     9      180.000000        0.190176         4    ;  uncertainty k = 0.071197
         3         4         5        36     9        0.000000        0.027677         1    ;  uncertainty k = 0.159864
         3         4         5        36     9      180.000000        3.247102         2    ;  uncertainty k = 0.152757
         3         4         5        36     9        0.000000        0.337967         3    ;  uncertainty k = 0.084040
         3         4         5        36     9      180.000000        0.305286         4    ;  uncertainty k = 0.011729
         3         4         5        37     9        0.000000        0.027677         1    ;  uncertainty k = 0.159864
         3         4         5        37     9      180.000000        3.247102         2    ;  uncertainty k = 0.152757
         3         4         5        37     9        0.000000        0.337967         3    ;  uncertainty k = 0.084040
         3         4         5        37     9      180.000000        0.305286         4    ;  uncertainty k = 0.011729
         3         4         5        38     9        0.000000        0.027677         1    ;  uncertainty k = 0.159864
         3         4         5        38     9      180.000000        3.247102         2    ;  uncertainty k = 0.152757
         3         4         5        38     9        0.000000        0.337967         3    ;  uncertainty k = 0.084040
         3         4         5        38     9      180.000000        0.305286         4    ;  uncertainty k = 0.011729
         3         4         6         7     9        0.000000       -0.409990         1    ;  uncertainty k = 0.792906
         3         4         6         7     9      180.000000       14.160541         2    ;  uncertainty k = 0.321728
         3         4         6         7     9        0.000000        0.839238         3    ;  uncertainty k = 0.541625
         3         4         6         7     9      180.000000        1.390705         4    ;  uncertainty k = 0.433262
         3         9         8         7     9        0.000000       -0.409990         1    ;  uncertainty k = 0.792903
         3         9         8         7     9      180.000000       14.160540         2    ;  uncertainty k = 0.321727
         3         9         8         7     9        0.000000        0.839239         3    ;  uncertainty k = 0.541625
         3         9         8         7     9      180.000000        1.390705         4    ;  uncertainty k = 0.433261
         3         9        10        39     9        0.000000        0.027677         1    ;  uncertainty k = 0.159865
         3         9        10        39     9      180.000000        3.247102         2    ;  uncertainty k = 0.152758
         3         9        10        39     9        0.000000        0.337967         3    ;  uncertainty k = 0.084040
         3         9        10        39     9      180.000000        0.305286         4    ;  uncertainty k = 0.011729
         3         9        10        40     9        0.000000        0.027677         1    ;  uncertainty k = 0.159865
         3         9        10        40     9      180.000000        3.247102         2    ;  uncertainty k = 0.152758
         3         9        10        40     9        0.000000        0.337967         3    ;  uncertainty k = 0.084040
         3         9        10        40     9      180.000000        0.305286         4    ;  uncertainty k = 0.011729
         3         9        10        41     9        0.000000        0.027677         1    ;  uncertainty k = 0.159865
         3         9        10        41     9      180.000000        3.247102         2    ;  uncertainty k = 0.152758
         3         9        10        41     9        0.000000        0.337967         3    ;  uncertainty k = 0.084040
         3         9        10        41     9      180.000000        0.305286         4    ;  uncertainty k = 0.011729
         4         3         9         8     9        0.000000       -0.210228         1    ;  uncertainty k = 0.237396
         4         3         9         8     9      180.000000        7.765380         2    ;  uncertainty k = 1.062051
         4         3         9         8     9        0.000000       -0.339370         3    ;  uncertainty k = 0.344489
         4         3         9         8     9      180.000000        1.116191         4    ;  uncertainty k = 0.324826
         4         3         9        10     9        0.000000        0.106229         1    ;  uncertainty k = 0.477377
         4         3         9        10     9      180.000000        4.659132         2    ;  uncertainty k = 0.646646
         4         3         9        10     9        0.000000        0.760051         3    ;  uncertainty k = 0.319118
         4         3         9        10     9      180.000000        1.301157         4    ;  uncertainty k = 0.398352
         4         6         7         8     9        0.000000       -0.394031         1    ;  uncertainty k = 1.109851
         4         6         7         8     9      180.000000        8.584826         2    ;  uncertainty k = 0.671776
         4         6         7         8     9        0.000000        0.669557         3    ;  uncertainty k = 0.531370
         4         6         7         8     9      180.000000        0.721209         4    ;  uncertainty k = 0.163921
         4         6         7        11     9        0.000000        0.376377         1    ;  uncertainty k = 1.217791
         4         6         7        11     9      180.000000       10.012576         2    ;  uncertainty k = 0.540076
         4         6         7        11     9        0.000000        1.703497         3    ;  uncertainty k = 0.287206
         4         6         7        11     9      180.000000        0.890202         4    ;  uncertainty k = 0.192329
         5         4         3         9     9        0.000000        0.106230         1    ;  uncertainty k = 0.477376
         5         4         3         9     9      180.000000        4.659131         2    ;  uncertainty k = 0.646647
         5         4         3         9     9        0.000000        0.760051         3    ;  uncertainty k = 0.319118
         5         4         3         9     9      180.000000        1.301157         4    ;  uncertainty k = 0.398352
         5         4         6         7     9        0.000000        0.170133         1    ;  uncertainty k = 0.869872
         5         4         6         7     9      180.000000       15.086484         2    ;  uncertainty k = 0.606230
         5         4         6         7     9        0.000000        2.332714         3    ;  uncertainty k = 0.340174
         5         4         6         7     9      180.000000        1.783658         4    ;  uncertainty k = 0.389912
         6         4         3         9     9        0.000000       -0.210230         1    ;  uncertainty k = 0.237396
         6         4         3         9     9      180.000000        7.765379         2    ;  uncertainty k = 1.062052
         6         4         3         9     9        0.000000       -0.339370         3    ;  uncertainty k = 0.344489
         6         4         3         9     9      180.000000        1.116192         4    ;  uncertainty k = 0.324826
         6         4         5        36     9        0.000000        0.503160         1    ;  uncertainty k = 0.175890
         6         4         5        36     9      180.000000        3.916855         2    ;  uncertainty k = 0.100361
         6         4         5        36     9        0.000000        0.534821         3    ;  uncertainty k = 0.083910
         6         4         5        36     9      180.000000        0.302152         4    ;  uncertainty k = 0.049817
         6         4         5        37     9        0.000000        0.503160         1    ;  uncertainty k = 0.175890
         6         4         5        37     9      180.000000        3.916855         2    ;  uncertainty k = 0.100361
         6         4         5        37     9        0.000000        0.534821         3    ;  uncertainty k = 0.083910
         6         4         5        37     9      180.000000        0.302152         4    ;  uncertainty k = 0.049817
         6         4         5        38     9        0.000000        0.503160         1    ;  uncertainty k = 0.175890
         6         4         5        38     9      180.000000        3.916855         2    ;  uncertainty k = 0.100361
         6         4         5        38     9        0.000000        0.534821         3    ;  uncertainty k = 0.083910
         6         4         5        38     9      180.000000        0.302152         4    ;  uncertainty k = 0.049817
         6         7         8         9     9        0.000000       -0.394030         1    ;  uncertainty k = 1.109851
         6         7         8         9     9      180.000000        8.584824         2    ;  uncertainty k = 0.671777
         6         7         8         9     9        0.000000        0.669557         3    ;  uncertainty k = 0.531371
         6         7         8         9     9      180.000000        0.721208         4    ;  uncertainty k = 0.163921
         6         7        11        12     9        0.000000        5.060145         1    ;  uncertainty k = 0.499327
         6         7        11        12     9      180.000000       11.209439         2    ;  uncertainty k = 0.178146
         6         7        11        12     9        0.000000        0.285703         3    ;  uncertainty k = 0.187928
         6         7        11        12     9      180.000000       -0.354348         4    ;  uncertainty k = 0.039618
         6         7        11        18     9        0.000000        5.060145         1    ;  uncertainty k = 0.499326
         6         7        11        18     9      180.000000       11.209439         2    ;  uncertainty k = 0.178146
         6         7        11        18     9        0.000000        0.285703         3    ;  uncertainty k = 0.187927
         6         7        11        18     9      180.000000       -0.354348         4    ;  uncertainty k = 0.039618
         7         8         9        10     9        0.000000        0.170132         1    ;  uncertainty k = 0.869873
         7         8         9        10     9      180.000000       15.086488         2    ;  uncertainty k = 0.606230
         7         8         9        10     9        0.000000        2.332713         3    ;  uncertainty k = 0.340174
         7         8         9        10     9      180.000000        1.783657         4    ;  uncertainty k = 0.389911
         7        11        12        13     9        0.000000       -5.333849         1    ;  uncertainty k = 2.016421
         7        11        12        13     9      180.000000        0.686741         2    ;  uncertainty k = 0.726315
         7        11        12        13     9        0.000000        0.818228         3    ;  uncertainty k = 0.299194
         7        11        12        13     9      180.000000        0.326225         4    ;  uncertainty k = 0.139868
         7        11        12        42     9        0.000000       -0.186096         1    ;  uncertainty k = 0.743804
         7        11        12        42     9      180.000000        1.057754         2    ;  uncertainty k = 0.363562
         7        11        12        42     9        0.000000        0.586798         3    ;  uncertainty k = 0.134648
         7        11        12        42     9      180.000000        0.378822         4    ;  uncertainty k = 0.110866
         7        11        12        43     9        0.000000       -0.186096         1    ;  uncertainty k = 0.743804
         7        11        12        43     9      180.000000        1.057754         2    ;  uncertainty k = 0.363562
         7        11        12        43     9        0.000000        0.586798         3    ;  uncertainty k = 0.134648
         7        11        12        43     9      180.000000        0.378822         4    ;  uncertainty k = 0.110866
         7        11        18        17     9        0.000000       -5.333850         1    ;  uncertainty k = 2.016420
         7        11        18        17     9      180.000000        0.686740         2    ;  uncertainty k = 0.726313
         7        11        18        17     9        0.000000        0.818227         3    ;  uncertainty k = 0.299194
         7        11        18        17     9      180.000000        0.326225         4    ;  uncertainty k = 0.139867
         7        11        18        50     9        0.000000       -0.186096         1    ;  uncertainty k = 0.743805
         7        11        18        50     9      180.000000        1.057755         2    ;  uncertainty k = 0.363562
         7        11        18        50     9        0.000000        0.586797         3    ;  uncertainty k = 0.134647
         7        11        18        50     9      180.000000        0.378822         4    ;  uncertainty k = 0.110866
         7        11        18        51     9        0.000000       -0.186096         1    ;  uncertainty k = 0.743805
         7        11        18        51     9      180.000000        1.057755         2    ;  uncertainty k = 0.363562
         7        11        18        51     9        0.000000        0.586797         3    ;  uncertainty k = 0.134647
         7        11        18        51     9      180.000000        0.378822         4    ;  uncertainty k = 0.110866
         8         7        11        12     9        0.000000        5.060145         1    ;  uncertainty k = 0.499326
         8         7        11        12     9      180.000000       11.209440         2    ;  uncertainty k = 0.178146
         8         7        11        12     9        0.000000        0.285702         3    ;  uncertainty k = 0.187928
         8         7        11        12     9      180.000000       -0.354348         4    ;  uncertainty k = 0.039618
         8         7        11        18     9        0.000000        5.060145         1    ;  uncertainty k = 0.499326
         8         7        11        18     9      180.000000       11.209440         2    ;  uncertainty k = 0.178147
         8         7        11        18     9        0.000000        0.285703         3    ;  uncertainty k = 0.187927
         8         7        11        18     9      180.000000       -0.354348         4    ;  uncertainty k = 0.039618
         8         9        10        39     9        0.000000        0.503160         1    ;  uncertainty k = 0.175891
         8         9        10        39     9      180.000000        3.916855         2    ;  uncertainty k = 0.100361
         8         9        10        39     9        0.000000        0.534822         3    ;  uncertainty k = 0.083910
         8         9        10        39     9      180.000000        0.302152         4    ;  uncertainty k = 0.049817
         8         9        10        40     9        0.000000        0.503160         1    ;  uncertainty k = 0.175891
         8         9        10        40     9      180.000000        3.916855         2    ;  uncertainty k = 0.100361
         8         9        10        40     9        0.000000        0.534822         3    ;  uncertainty k = 0.083910
         8         9        10        40     9      180.000000        0.302152         4    ;  uncertainty k = 0.049817
         8         9        10        41     9        0.000000        0.503160         1    ;  uncertainty k = 0.175891
         8         9        10        41     9      180.000000        3.916855         2    ;  uncertainty k = 0.100361
         8         9        10        41     9        0.000000        0.534822         3    ;  uncertainty k = 0.083910
         8         9        10        41     9      180.000000        0.302152         4    ;  uncertainty k = 0.049817
         9         8         7        11     9        0.000000        0.376376         1    ;  uncertainty k = 1.217792
         9         8         7        11     9      180.000000       10.012577         2    ;  uncertainty k = 0.540076
         9         8         7        11     9        0.000000        1.703497         3    ;  uncertainty k = 0.287207
         9         8         7        11     9      180.000000        0.890202         4    ;  uncertainty k = 0.192330
        11        12        13        14     9        0.000000       -1.986982         1    ;  uncertainty k = 1.131584
        11        12        13        14     9      180.000000        0.974418         2    ;  uncertainty k = 0.865254
        11        12        13        14     9        0.000000        1.658617         3    ;  uncertainty k = 0.387465
        11        12        13        14     9      180.000000       -0.170490         4    ;  uncertainty k = 0.236445
        11        12        13        17     9        0.000000       -0.248945         1    ;  uncertainty k = 1.669286
        11        12        13        17     9      180.000000        6.161827         2    ;  uncertainty k = 1.110761
        11        12        13        17     9        0.000000        0.670927         3    ;  uncertainty k = 0.347090
        11        12        13        17     9      180.000000       -1.488831         4    ;  uncertainty k = 0.506458
        11        12        13        44     9        0.000000        0.565923         1    ;  uncertainty k = 0.856651
        11        12        13        44     9      180.000000        1.324272         2    ;  uncertainty k = 0.513614
        11        12        13        44     9        0.000000        1.171168         3    ;  uncertainty k = 0.217600
        11        12        13        44     9      180.000000       -0.072433         4    ;  uncertainty k = 0.184790
        11        18        17        13     9        0.000000       -0.248945         1    ;  uncertainty k = 1.669289
        11        18        17        13     9      180.000000        6.161828         2    ;  uncertainty k = 1.110762
        11        18        17        13     9        0.000000        0.670927         3    ;  uncertainty k = 0.347090
        11        18        17        13     9      180.000000       -1.488831         4    ;  uncertainty k = 0.506459
        11        18        17        16     9        0.000000       -1.986981         1    ;  uncertainty k = 1.131583
        11        18        17        16     9      180.000000        0.974418         2    ;  uncertainty k = 0.865255
        11        18        17        16     9        0.000000        1.658617         3    ;  uncertainty k = 0.387465
        11        18        17        16     9      180.000000       -0.170489         4    ;  uncertainty k = 0.236445
        11        18        17        49     9        0.000000        0.565924         1    ;  uncertainty k = 0.856650
        11        18        17        49     9      180.000000        1.324273         2    ;  uncertainty k = 0.513614
        11        18        17        49     9        0.000000        1.171169         3    ;  uncertainty k = 0.217600
        11        18        17        49     9      180.000000       -0.072433         4    ;  uncertainty k = 0.184790
        12        11        18        17     9        0.000000        0.409931         1    ;  uncertainty k = 1.033845
        12        11        18        17     9      180.000000        1.423323         2    ;  uncertainty k = 1.181229
        12        11        18        17     9        0.000000        0.860226         3    ;  uncertainty k = 0.332034
        12        11        18        17     9      180.000000        0.010764         4    ;  uncertainty k = 0.168708
        12        11        18        50     9        0.000000       -2.106812         1    ;  uncertainty k = 0.722682
        12        11        18        50     9      180.000000        1.271152         2    ;  uncertainty k = 0.391418
        12        11        18        50     9        0.000000        1.144989         3    ;  uncertainty k = 0.081016
        12        11        18        50     9      180.000000        0.249969         4    ;  uncertainty k = 0.124009
        12        11        18        51     9        0.000000       -2.106812         1    ;  uncertainty k = 0.722682
        12        11        18        51     9      180.000000        1.271152         2    ;  uncertainty k = 0.391418
        12        11        18        51     9        0.000000        1.144989         3    ;  uncertainty k = 0.081016
        12        11        18        51     9      180.000000        0.249969         4    ;  uncertainty k = 0.124009
        12        13        14        15     9        0.000000       -2.607420         1    ;  uncertainty k = 0.995424
        12        13        14        15     9      180.000000        0.022076         2    ;  uncertainty k = 0.727033
        12        13        14        15     9        0.000000        1.612970         3    ;  uncertainty k = 0.235291
        12        13        14        15     9      180.000000       -0.185713         4    ;  uncertainty k = 0.112586
        12        13        14        45     9        0.000000       -0.498818         1    ;  uncertainty k = 0.107247
        12        13        14        45     9      180.000000       -0.409706         2    ;  uncertainty k = 0.197166
        12        13        14        45     9        0.000000        0.564543         3    ;  uncertainty k = 0.186998
        12        13        14        45     9      180.000000       -0.072177         4    ;  uncertainty k = 0.062323
        12        13        14        46     9        0.000000       -0.498818         1    ;  uncertainty k = 0.107247
        12        13        14        46     9      180.000000       -0.409706         2    ;  uncertainty k = 0.197166
        12        13        14        46     9        0.000000        0.564543         3    ;  uncertainty k = 0.186998
        12        13        14        46     9      180.000000       -0.072177         4    ;  uncertainty k = 0.062323
        12        13        17        16     9        0.000000       -3.847150         1    ;  uncertainty k = 0.842081
        12        13        17        16     9      180.000000        0.994502         2    ;  uncertainty k = 1.017626
        12        13        17        16     9        0.000000        1.189094         3    ;  uncertainty k = 0.581588
        12        13        17        16     9      180.000000       -0.416044         4    ;  uncertainty k = 0.334399
        12        13        17        18     9        0.000000       -3.896618         1    ;  uncertainty k = 1.087275
        12        13        17        18     9      180.000000        1.035025         2    ;  uncertainty k = 1.026286
        12        13        17        18     9        0.000000        1.207838         3    ;  uncertainty k = 0.671623
        12        13        17        18     9      180.000000       -0.436931         4    ;  uncertainty k = 0.343366
        12        13        17        49     9        0.000000       -1.223112         1    ;  uncertainty k = 0.611377
        12        13        17        49     9      180.000000        0.489634         2    ;  uncertainty k = 0.414978
        12        13        17        49     9        0.000000        0.997353         3    ;  uncertainty k = 0.241670
        12        13        17        49     9      180.000000        0.066778         4    ;  uncertainty k = 0.087125
        13        12        11        18     9        0.000000        0.409930         1    ;  uncertainty k = 1.033845
        13        12        11        18     9      180.000000        1.423324         2    ;  uncertainty k = 1.181230
        13        12        11        18     9        0.000000        0.860226         3    ;  uncertainty k = 0.332035
        13        12        11        18     9      180.000000        0.010764         4    ;  uncertainty k = 0.168708
        13        14        15        16     9        0.000000       -0.578347         1    ;  uncertainty k = 0.919747
        13        14        15        16     9      180.000000        0.242792         2    ;  uncertainty k = 0.701024
        13        14        15        16     9        0.000000        0.797027         3    ;  uncertainty k = 0.218418
        13        14        15        16     9      180.000000        0.154107         4    ;  uncertainty k = 0.246781
        13        14        15        19     9        0.000000       -0.209381         1    ;  uncertainty k = 0.966461
        13        14        15        19     9      180.000000       -0.541701         2    ;  uncertainty k = 0.373893
        13        14        15        19     9        0.000000        0.202801         3    ;  uncertainty k = 0.362931
        13        14        15        19     9      180.000000        0.702312         4    ;  uncertainty k = 0.132281
        13        17        16        15     9        0.000000       -0.736764         1    ;  uncertainty k = 0.633515
        13        17        16        15     9      180.000000        6.025412         2    ;  uncertainty k = 1.000861
        13        17        16        15     9        0.000000        0.435197         3    ;  uncertainty k = 0.297546
        13        17        16        15     9      180.000000       -1.170163         4    ;  uncertainty k = 0.204855
        13        17        16        47     9        0.000000        0.480411         1    ;  uncertainty k = 0.492791
        13        17        16        47     9      180.000000       -1.104496         2    ;  uncertainty k = 0.672329
        13        17        16        47     9        0.000000       -0.270073         3    ;  uncertainty k = 0.170671
        13        17        16        47     9      180.000000       -0.013160         4    ;  uncertainty k = 0.174221
        13        17        16        48     9        0.000000        0.480411         1    ;  uncertainty k = 0.492791
        13        17        16        48     9      180.000000       -1.104496         2    ;  uncertainty k = 0.672329
        13        17        16        48     9        0.000000       -0.270073         3    ;  uncertainty k = 0.170671
        13        17        16        48     9      180.000000       -0.013160         4    ;  uncertainty k = 0.174221
        13        17        18        50     9        0.000000        0.646621         1    ;  uncertainty k = 0.517783
        13        17        18        50     9      180.000000       -1.099688         2    ;  uncertainty k = 0.743824
        13        17        18        50     9        0.000000       -0.334779         3    ;  uncertainty k = 0.213643
        13        17        18        50     9      180.000000       -0.018734         4    ;  uncertainty k = 0.206092
        13        17        18        51     9        0.000000        0.646621         1    ;  uncertainty k = 0.517783
        13        17        18        51     9      180.000000       -1.099688         2    ;  uncertainty k = 0.743824
        13        17        18        51     9        0.000000       -0.334779         3    ;  uncertainty k = 0.213643
        13        17        18        51     9      180.000000       -0.018734         4    ;  uncertainty k = 0.206092
        14        13        12        42     9        0.000000       -0.670734         1    ;  uncertainty k = 0.233995
        14        13        12        42     9      180.000000       -0.386310         2    ;  uncertainty k = 0.258590
        14        13        12        42     9        0.000000        0.557637         3    ;  uncertainty k = 0.179621
        14        13        12        42     9      180.000000       -0.081826         4    ;  uncertainty k = 0.095492
        14        13        12        43     9        0.000000       -0.670734         1    ;  uncertainty k = 0.233995
        14        13        12        43     9      180.000000       -0.386310         2    ;  uncertainty k = 0.258590
        14        13        12        43     9        0.000000        0.557637         3    ;  uncertainty k = 0.179621
        14        13        12        43     9      180.000000       -0.081826         4    ;  uncertainty k = 0.095492
        14        13        17        16     9        0.000000       -3.717091         1    ;  uncertainty k = 0.646014
        14        13        17        16     9      180.000000        0.952705         2    ;  uncertainty k = 0.984304
        14        13        17        16     9        0.000000        1.178983         3    ;  uncertainty k = 0.499657
        14        13        17        16     9      180.000000       -0.410261         4    ;  uncertainty k = 0.338854
        14        13        17        18     9        0.000000       -3.847151         1    ;  uncertainty k = 0.842082
        14        13        17        18     9      180.000000        0.994504         2    ;  uncertainty k = 1.017625
        14        13        17        18     9        0.000000        1.189094         3    ;  uncertainty k = 0.581588
        14        13        17        18     9      180.000000       -0.416044         4    ;  uncertainty k = 0.334399
        14        13        17        49     9        0.000000       -1.291634         1    ;  uncertainty k = 0.560343
        14        13        17        49     9      180.000000        0.594321         2    ;  uncertainty k = 0.368266
        14        13        17        49     9        0.000000        1.030260         3    ;  uncertainty k = 0.246250
        14        13        17        49     9      180.000000        0.081405         4    ;  uncertainty k = 0.059901
        14        15        16        17     9        0.000000       -0.578347         1    ;  uncertainty k = 0.919747
        14        15        16        17     9      180.000000        0.242792         2    ;  uncertainty k = 0.701025
        14        15        16        17     9        0.000000        0.797027         3    ;  uncertainty k = 0.218419
        14        15        16        17     9      180.000000        0.154107         4    ;  uncertainty k = 0.246781
        14        15        16        47     9        0.000000       -1.810377         1    ;  uncertainty k = 0.576097
        14        15        16        47     9      180.000000        1.086382         2    ;  uncertainty k = 0.426528
        14        15        16        47     9        0.000000        1.250141         3    ;  uncertainty k = 0.136647
        14        15        16        47     9      180.000000        0.301768         4    ;  uncertainty k = 0.117464
        14        15        16        48     9        0.000000       -1.810377         1    ;  uncertainty k = 0.576097
        14        15        16        48     9      180.000000        1.086382         2    ;  uncertainty k = 0.426528
        14        15        16        48     9        0.000000        1.250141         3    ;  uncertainty k = 0.136647
        14        15        16        48     9      180.000000        0.301768         4    ;  uncertainty k = 0.117464
        14        15        19        20     9        0.000000        6.357003         1    ;  uncertainty k = 0.547606
        14        15        19        20     9      180.000000       16.962734         2    ;  uncertainty k = 0.212954
        14        15        19        20     9        0.000000        0.267170         3    ;  uncertainty k = 0.202910
        14        15        19        20     9      180.000000       -1.190649         4    ;  uncertainty k = 0.124612
        14        15        19        21     9        0.000000        3.407849         1    ;  uncertainty k = 1.339110
        14        15        19        21     9      180.000000        8.996075         2    ;  uncertainty k = 0.412445
        14        15        19        21     9        0.000000        1.595044         3    ;  uncertainty k = 0.230309
        14        15        19        21     9      180.000000       -0.020267         4    ;  uncertainty k = 0.371981
        15        14        13        17     9        0.000000       -0.736762         1    ;  uncertainty k = 0.633517
        15        14        13        17     9      180.000000        6.025413         2    ;  uncertainty k = 1.000861
        15        14        13        17     9        0.000000        0.435196         3    ;  uncertainty k = 0.297545
        15        14        13        17     9      180.000000       -1.170163         4    ;  uncertainty k = 0.204856
        15        14        13        44     9        0.000000        0.123161         1    ;  uncertainty k = 0.632773
        15        14        13        44     9      180.000000        0.836162         2    ;  uncertainty k = 0.434791
        15        14        13        44     9        0.000000        1.098159         3    ;  uncertainty k = 0.161086
        15        14        13        44     9      180.000000       -0.066245         4    ;  uncertainty k = 0.104331
        15        16        17        18     9        0.000000       -2.607419         1    ;  uncertainty k = 0.995424
        15        16        17        18     9      180.000000        0.022076         2    ;  uncertainty k = 0.727033
        15        16        17        18     9        0.000000        1.612970         3    ;  uncertainty k = 0.235290
        15        16        17        18     9      180.000000       -0.185713         4    ;  uncertainty k = 0.112586
        15        16        17        49     9        0.000000        0.123160         1    ;  uncertainty k = 0.632774
        15        16        17        49     9      180.000000        0.836161         2    ;  uncertainty k = 0.434791
        15        16        17        49     9        0.000000        1.098159         3    ;  uncertainty k = 0.161086
        15        16        17        49     9      180.000000       -0.066245         4    ;  uncertainty k = 0.104331
        15        19        21        22     9        0.000000        1.851367         1    ;  uncertainty k = 1.259576
        15        19        21        22     9      180.000000        5.752965         2    ;  uncertainty k = 0.175508
        15        19        21        22     9        0.000000        0.162215         3    ;  uncertainty k = 0.318225
        15        19        21        22     9      180.000000        0.484794         4    ;  uncertainty k = 0.155871
        15        19        21        27     9        0.000000        3.709916         1    ;  uncertainty k = 1.132205
        15        19        21        27     9      180.000000        5.907216         2    ;  uncertainty k = 0.295098
        15        19        21        27     9        0.000000        0.162296         3    ;  uncertainty k = 0.106376
        15        19        21        27     9      180.000000        0.490410         4    ;  uncertainty k = 0.140372
        16        15        14        45     9        0.000000       -1.810377         1    ;  uncertainty k = 0.576098
        16        15        14        45     9      180.000000        1.086382         2    ;  uncertainty k = 0.426526
        16        15        14        45     9        0.000000        1.250141         3    ;  uncertainty k = 0.136647
        16        15        14        45     9      180.000000        0.301768         4    ;  uncertainty k = 0.117464
        16        15        14        46     9        0.000000       -1.810377         1    ;  uncertainty k = 0.576098
        16        15        14        46     9      180.000000        1.086382         2    ;  uncertainty k = 0.426526
        16        15        14        46     9        0.000000        1.250141         3    ;  uncertainty k = 0.136647
        16        15        14        46     9      180.000000        0.301768         4    ;  uncertainty k = 0.117464
        16        15        19        20     9        0.000000        6.357001         1    ;  uncertainty k = 0.547606
        16        15        19        20     9      180.000000       16.962734         2    ;  uncertainty k = 0.212955
        16        15        19        20     9        0.000000        0.267170         3    ;  uncertainty k = 0.202910
        16        15        19        20     9      180.000000       -1.190649         4    ;  uncertainty k = 0.124611
        16        15        19        21     9        0.000000        3.407847         1    ;  uncertainty k = 1.339110
        16        15        19        21     9      180.000000        8.996074         2    ;  uncertainty k = 0.412445
        16        15        19        21     9        0.000000        1.595043         3    ;  uncertainty k = 0.230310
        16        15        19        21     9      180.000000       -0.020268         4    ;  uncertainty k = 0.371981
        16        17        13        44     9        0.000000       -1.291633         1    ;  uncertainty k = 0.560343
        16        17        13        44     9      180.000000        0.594321         2    ;  uncertainty k = 0.368268
        16        17        13        44     9        0.000000        1.030260         3    ;  uncertainty k = 0.246250
        16        17        13        44     9      180.000000        0.081405         4    ;  uncertainty k = 0.059900
        16        17        18        50     9        0.000000       -0.670733         1    ;  uncertainty k = 0.233996
        16        17        18        50     9      180.000000       -0.386309         2    ;  uncertainty k = 0.258591
        16        17        18        50     9        0.000000        0.557638         3    ;  uncertainty k = 0.179621
        16        17        18        50     9      180.000000       -0.081826         4    ;  uncertainty k = 0.095492
        16        17        18        51     9        0.000000       -0.670733         1    ;  uncertainty k = 0.233996
        16        17        18        51     9      180.000000       -0.386309         2    ;  uncertainty k = 0.258591
        16        17        18        51     9        0.000000        0.557638         3    ;  uncertainty k = 0.179621
        16        17        18        51     9      180.000000       -0.081826         4    ;  uncertainty k = 0.095492
        17        13        12        42     9        0.000000        0.646621         1    ;  uncertainty k = 0.517781
        17        13        12        42     9      180.000000       -1.099689         2    ;  uncertainty k = 0.743823
        17        13        12        42     9        0.000000       -0.334778         3    ;  uncertainty k = 0.213644
        17        13        12        42     9      180.000000       -0.018734         4    ;  uncertainty k = 0.206091
        17        13        12        43     9        0.000000        0.646621         1    ;  uncertainty k = 0.517781
        17        13        12        43     9      180.000000       -1.099689         2    ;  uncertainty k = 0.743823
        17        13        12        43     9        0.000000       -0.334778         3    ;  uncertainty k = 0.213644
        17        13        12        43     9      180.000000       -0.018734         4    ;  uncertainty k = 0.206091
        17        13        14        45     9        0.000000        0.480411         1    ;  uncertainty k = 0.492791
        17        13        14        45     9      180.000000       -1.104495         2    ;  uncertainty k = 0.672328
        17        13        14        45     9        0.000000       -0.270073         3    ;  uncertainty k = 0.170671
        17        13        14        45     9      180.000000       -0.013161         4    ;  uncertainty k = 0.174221
        17        13        14        46     9        0.000000        0.480411         1    ;  uncertainty k = 0.492791
        17        13        14        46     9      180.000000       -1.104495         2    ;  uncertainty k = 0.672328
        17        13        14        46     9        0.000000       -0.270073         3    ;  uncertainty k = 0.170671
        17        13        14        46     9      180.000000       -0.013161         4    ;  uncertainty k = 0.174221
        17        16        15        19     9        0.000000       -0.209380         1    ;  uncertainty k = 0.966459
        17        16        15        19     9      180.000000       -0.541701         2    ;  uncertainty k = 0.373894
        17        16        15        19     9        0.000000        0.202801         3    ;  uncertainty k = 0.362931
        17        16        15        19     9      180.000000        0.702311         4    ;  uncertainty k = 0.132281
        18        11        12        42     9        0.000000       -2.106813         1    ;  uncertainty k = 0.722682
        18        11        12        42     9      180.000000        1.271152         2    ;  uncertainty k = 0.391418
        18        11        12        42     9        0.000000        1.144989         3    ;  uncertainty k = 0.081016
        18        11        12        42     9      180.000000        0.249969         4    ;  uncertainty k = 0.124009
        18        11        12        43     9        0.000000       -2.106813         1    ;  uncertainty k = 0.722682
        18        11        12        43     9      180.000000        1.271152         2    ;  uncertainty k = 0.391418
        18        11        12        43     9        0.000000        1.144989         3    ;  uncertainty k = 0.081016
        18        11        12        43     9      180.000000        0.249969         4    ;  uncertainty k = 0.124009
        18        17        13        44     9        0.000000       -1.223110         1    ;  uncertainty k = 0.611378
        18        17        13        44     9      180.000000        0.489635         2    ;  uncertainty k = 0.414979
        18        17        13        44     9        0.000000        0.997353         3    ;  uncertainty k = 0.241669
        18        17        13        44     9      180.000000        0.066778         4    ;  uncertainty k = 0.087125
        18        17        16        47     9        0.000000       -0.498818         1    ;  uncertainty k = 0.107248
        18        17        16        47     9      180.000000       -0.409705         2    ;  uncertainty k = 0.197166
        18        17        16        47     9        0.000000        0.564544         3    ;  uncertainty k = 0.186998
        18        17        16        47     9      180.000000       -0.072177         4    ;  uncertainty k = 0.062323
        18        17        16        48     9        0.000000       -0.498818         1    ;  uncertainty k = 0.107248
        18        17        16        48     9      180.000000       -0.409705         2    ;  uncertainty k = 0.197166
        18        17        16        48     9        0.000000        0.564544         3    ;  uncertainty k = 0.186998
        18        17        16        48     9      180.000000       -0.072177         4    ;  uncertainty k = 0.062323
        19        15        14        45     9        0.000000        1.416105         1    ;  uncertainty k = 0.719804
        19        15        14        45     9      180.000000        0.065610         2    ;  uncertainty k = 0.093474
        19        15        14        45     9        0.000000        0.002232         3    ;  uncertainty k = 0.089343
        19        15        14        45     9      180.000000        0.277826         4    ;  uncertainty k = 0.071341
        19        15        14        46     9        0.000000        1.416105         1    ;  uncertainty k = 0.719804
        19        15        14        46     9      180.000000        0.065610         2    ;  uncertainty k = 0.093474
        19        15        14        46     9        0.000000        0.002232         3    ;  uncertainty k = 0.089343
        19        15        14        46     9      180.000000        0.277826         4    ;  uncertainty k = 0.071341
        19        15        16        47     9        0.000000        1.416105         1    ;  uncertainty k = 0.719804
        19        15        16        47     9      180.000000        0.065610         2    ;  uncertainty k = 0.093472
        19        15        16        47     9        0.000000        0.002232         3    ;  uncertainty k = 0.089343
        19        15        16        47     9      180.000000        0.277826         4    ;  uncertainty k = 0.071341
        19        15        16        48     9        0.000000        1.416105         1    ;  uncertainty k = 0.719804
        19        15        16        48     9      180.000000        0.065610         2    ;  uncertainty k = 0.093472
        19        15        16        48     9        0.000000        0.002232         3    ;  uncertainty k = 0.089343
        19        15        16        48     9      180.000000        0.277826         4    ;  uncertainty k = 0.071341
        19        21        22        23     9        0.000000        0.086680         1    ;  uncertainty k = 0.322670
        19        21        22        23     9      180.000000       11.407953         2    ;  uncertainty k = 0.599565
        19        21        22        23     9        0.000000        1.385161         3    ;  uncertainty k = 0.187005
        19        21        22        23     9      180.000000        1.483635         4    ;  uncertainty k = 0.318096
        19        21        22        24     9        0.000000        0.114462         1    ;  uncertainty k = 0.659063
        19        21        22        24     9      180.000000        6.312817         2    ;  uncertainty k = 0.577136
        19        21        22        24     9        0.000000        1.356865         3    ;  uncertainty k = 0.282275
        19        21        22        24     9      180.000000        1.940646         4    ;  uncertainty k = 0.196893
        19        21        27        26     9        0.000000        0.266109         1    ;  uncertainty k = 0.262230
        19        21        27        26     9      180.000000        6.791976         2    ;  uncertainty k = 0.556220
        19        21        27        26     9        0.000000        1.305735         3    ;  uncertainty k = 0.332052
        19        21        27        26     9      180.000000        1.750369         4    ;  uncertainty k = 0.249436
        19        21        27        28     9        0.000000       -0.079088         1    ;  uncertainty k = 0.890587
        19        21        27        28     9      180.000000       10.037557         2    ;  uncertainty k = 0.622174
        19        21        27        28     9        0.000000        1.315712         3    ;  uncertainty k = 0.504290
        19        21        27        28     9      180.000000        1.286094         4    ;  uncertainty k = 0.361801
        20        19        21        22     9        0.000000       -1.928785         1    ;  uncertainty k = 0.969843
        20        19        21        22     9      180.000000        5.038791         2    ;  uncertainty k = 0.443316
        20        19        21        22     9        0.000000        0.869540         3    ;  uncertainty k = 0.424298
        20        19        21        22     9      180.000000        0.459984         4    ;  uncertainty k = 0.229979
        20        19        21        27     9        0.000000       -3.997731         1    ;  uncertainty k = 0.906468
        20        19        21        27     9      180.000000        5.945518         2    ;  uncertainty k = 0.542758
        20        19        21        27     9        0.000000        0.551178         3    ;  uncertainty k = 0.549645
        20        19        21        27     9      180.000000        0.513462         4    ;  uncertainty k = 0.329406
        21        22        24        25     9        0.000000        0.011529         1    ;  uncertainty k = 0.194930
        21        22        24        25     9      180.000000        8.787238         2    ;  uncertainty k = 0.361867
        21        22        24        25     9        0.000000        0.106727         3    ;  uncertainty k = 0.344316
        21        22        24        25     9      180.000000        1.205900         4    ;  uncertainty k = 0.276948
        21        22        24        52     9        0.000000       -0.168918         1    ;  uncertainty k = 0.390695
        21        22        24        52     9      180.000000        5.695522         2    ;  uncertainty k = 0.674905
        21        22        24        52     9        0.000000        1.129293         3    ;  uncertainty k = 0.356557
        21        22        24        52     9      180.000000        1.505167         4    ;  uncertainty k = 0.216214
        21        27        26        25     9        0.000000       -0.242508         1    ;  uncertainty k = 0.315737
        21        27        26        25     9      180.000000        9.681246         2    ;  uncertainty k = 0.496020
        21        27        26        25     9        0.000000        0.240132         3    ;  uncertainty k = 0.161668
        21        27        26        25     9      180.000000        1.271249         4    ;  uncertainty k = 0.330409
        21        27        26        54     9        0.000000       -0.007148         1    ;  uncertainty k = 0.345797
        21        27        26        54     9      180.000000        6.393420         2    ;  uncertainty k = 0.363299
        21        27        26        54     9        0.000000        1.235598         3    ;  uncertainty k = 0.195907
        21        27        26        54     9      180.000000        1.608512         4    ;  uncertainty k = 0.191460
        21        27        28        29     9        0.000000       -1.535069         1    ;  uncertainty k = 0.563416
        21        27        28        29     9      180.000000        4.499715         2    ;  uncertainty k = 0.535585
        21        27        28        29     9        0.000000        0.637687         3    ;  uncertainty k = 0.351002
        21        27        28        29     9      180.000000       -0.090463         4    ;  uncertainty k = 0.183190
        21        27        28        32     9        0.000000       -1.535069         1    ;  uncertainty k = 0.563416
        21        27        28        32     9      180.000000        4.499715         2    ;  uncertainty k = 0.535585
        21        27        28        32     9        0.000000        0.637687         3    ;  uncertainty k = 0.351002
        21        27        28        32     9      180.000000       -0.090463         4    ;  uncertainty k = 0.183190
        22        21        27        26     9        0.000000       -0.242351         1    ;  uncertainty k = 0.420152
        22        21        27        26     9      180.000000        6.983637         2    ;  uncertainty k = 0.869640
        22        21        27        26     9        0.000000        0.325219         3    ;  uncertainty k = 0.349953
        22        21        27        26     9      180.000000        1.307286         4    ;  uncertainty k = 0.335099
        22        21        27        28     9        0.000000        0.337460         1    ;  uncertainty k = 0.391009
        22        21        27        28     9      180.000000       10.376661         2    ;  uncertainty k = 0.372710
        22        21        27        28     9        0.000000        1.330823         3    ;  uncertainty k = 0.417773
        22        21        27        28     9      180.000000        1.431413         4    ;  uncertainty k = 0.199546
        22        24        25        26     9        0.000000       -0.033963         1    ;  uncertainty k = 0.110226
        22        24        25        26     9      180.000000       13.984025         2    ;  uncertainty k = 0.340845
        22        24        25        26     9        0.000000       -1.042557         3    ;  uncertainty k = 0.357764
        22        24        25        26     9      180.000000        0.802609         4    ;  uncertainty k = 0.247483
        22        24        25        53     9        0.000000       -0.104379         1    ;  uncertainty k = 0.141872
        22        24        25        53     9      180.000000        7.264410         2    ;  uncertainty k = 0.340044
        22        24        25        53     9        0.000000        1.287730         3    ;  uncertainty k = 0.202339
        22        24        25        53     9      180.000000        1.653500         4    ;  uncertainty k = 0.150967
        23        22        21        27     9        0.000000        0.033254         1    ;  uncertainty k = 0.304862
        23        22        21        27     9      180.000000       11.302610         2    ;  uncertainty k = 0.302059
        23        22        21        27     9        0.000000        1.679241         3    ;  uncertainty k = 0.164696
        23        22        21        27     9      180.000000        1.555515         4    ;  uncertainty k = 0.157671
        23        22        24        25     9        0.000000       -0.080232         1    ;  uncertainty k = 0.461474
        23        22        24        25     9      180.000000       13.203682         2    ;  uncertainty k = 0.340325
        23        22        24        25     9        0.000000        1.295972         3    ;  uncertainty k = 0.165134
        23        22        24        25     9      180.000000        1.523069         4    ;  uncertainty k = 0.233966
        23        22        24        52     9        0.000000       -0.128834         1    ;  uncertainty k = 0.456012
        23        22        24        52     9      180.000000        9.556552         2    ;  uncertainty k = 0.491147
        23        22        24        52     9        0.000000        0.767278         3    ;  uncertainty k = 0.273034
        23        22        24        52     9      180.000000        1.024642         4    ;  uncertainty k = 0.200947
        24        22        21        27     9        0.000000       -0.325541         1    ;  uncertainty k = 0.355388
        24        22        21        27     9      180.000000        6.052960         2    ;  uncertainty k = 0.864094
        24        22        21        27     9        0.000000        0.684668         3    ;  uncertainty k = 0.181781
        24        22        21        27     9      180.000000        1.492448         4    ;  uncertainty k = 0.353261
        24        25        26        27     9        0.000000       -0.096416         1    ;  uncertainty k = 0.180639
        24        25        26        27     9      180.000000       13.532949         2    ;  uncertainty k = 0.268821
        24        25        26        27     9        0.000000       -0.934273         3    ;  uncertainty k = 0.410646
        24        25        26        27     9      180.000000        0.824229         4    ;  uncertainty k = 0.239882
        24        25        26        54     9        0.000000        0.090918         1    ;  uncertainty k = 0.138952
        24        25        26        54     9      180.000000        7.803070         2    ;  uncertainty k = 0.340548
        24        25        26        54     9        0.000000        1.340932         3    ;  uncertainty k = 0.288750
        24        25        26        54     9      180.000000        1.895629         4    ;  uncertainty k = 0.190611
        25        26        27        28     9        0.000000        0.460449         1    ;  uncertainty k = 0.322983
        25        26        27        28     9      180.000000       11.387678         2    ;  uncertainty k = 0.346993
        25        26        27        28     9        0.000000        0.982542         3    ;  uncertainty k = 0.164036
        25        26        27        28     9      180.000000        1.624026         4    ;  uncertainty k = 0.138288
        26        25        24        52     9        0.000000        0.058868         1    ;  uncertainty k = 0.276257
        26        25        24        52     9      180.000000        7.716329         2    ;  uncertainty k = 0.326791
        26        25        24        52     9        0.000000        1.437490         3    ;  uncertainty k = 0.272563
        26        25        24        52     9      180.000000        1.759669         4    ;  uncertainty k = 0.126329
        26        27        28        29     9        0.000000        2.394481         1    ;  uncertainty k = 0.740964
        26        27        28        29     9      180.000000        4.329586         2    ;  uncertainty k = 0.263950
        26        27        28        29     9        0.000000        0.391713         3    ;  uncertainty k = 0.190597
        26        27        28        29     9      180.000000        0.083730         4    ;  uncertainty k = 0.150415
        26        27        28        32     9        0.000000        2.394481         1    ;  uncertainty k = 0.740964
        26        27        28        32     9      180.000000        4.329586         2    ;  uncertainty k = 0.263950
        26        27        28        32     9        0.000000        0.391713         3    ;  uncertainty k = 0.190597
        26        27        28        32     9      180.000000        0.083730         4    ;  uncertainty k = 0.150415
        27        26        25        53     9        0.000000       -0.010723         1    ;  uncertainty k = 0.237400
        27        26        25        53     9      180.000000        7.958978         2    ;  uncertainty k = 0.442749
        27        26        25        53     9        0.000000        1.209101         3    ;  uncertainty k = 0.164443
        27        26        25        53     9      180.000000        1.723739         4    ;  uncertainty k = 0.144208
        27        28        29        30     9        0.000000        0.797559         1    ;  uncertainty k = 2.309877
        27        28        29        30     9      180.000000       14.114446         2    ;  uncertainty k = 0.418682
        27        28        29        30     9        0.000000        1.402880         3    ;  uncertainty k = 0.442527
        27        28        29        30     9      180.000000        0.112613         4    ;  uncertainty k = 0.206946
        27        28        32        31     9        0.000000        0.797559         1    ;  uncertainty k = 2.309877
        27        28        32        31     9      180.000000       14.114446         2    ;  uncertainty k = 0.418682
        27        28        32        31     9        0.000000        1.402880         3    ;  uncertainty k = 0.442527
        27        28        32        31     9      180.000000        0.112613         4    ;  uncertainty k = 0.206946
        28        27        26        54     9        0.000000        0.135211         1    ;  uncertainty k = 0.398577
        28        27        26        54     9      180.000000        8.519176         2    ;  uncertainty k = 0.273746
        28        27        26        54     9        0.000000        0.803950         3    ;  uncertainty k = 0.224881
        28        27        26        54     9      180.000000        1.348903         4    ;  uncertainty k = 0.152778
        28        29        30        31     9        0.000000        0.015899         1    ;  uncertainty k = 0.518603
        28        29        30        31     9      180.000000       24.370143         2    ;  uncertainty k = 0.366584
        28        29        30        31     9        0.000000       -9.715998         3    ;  uncertainty k = 1.915613
        28        29        30        31     9      180.000000        2.426696         4    ;  uncertainty k = 0.655510
        28        29        30        55     9        0.000000        0.232294         1    ;  uncertainty k = 0.741580
        28        29        30        55     9      180.000000       22.028694         2    ;  uncertainty k = 0.487024
        28        29        30        55     9        0.000000        1.455895         3    ;  uncertainty k = 0.397708
        28        29        30        55     9      180.000000        1.220382         4    ;  uncertainty k = 0.604170
        28        32        31        30     9        0.000000        0.015899         1    ;  uncertainty k = 0.518603
        28        32        31        30     9      180.000000       24.370143         2    ;  uncertainty k = 0.366584
        28        32        31        30     9        0.000000       -9.715998         3    ;  uncertainty k = 1.915613
        28        32        31        30     9      180.000000        2.426696         4    ;  uncertainty k = 0.655510
        28        32        31        56     9        0.000000        0.232294         1    ;  uncertainty k = 0.741580
        28        32        31        56     9      180.000000       22.028694         2    ;  uncertainty k = 0.487024
        28        32        31        56     9        0.000000        1.455895         3    ;  uncertainty k = 0.397708
        28        32        31        56     9      180.000000        1.220382         4    ;  uncertainty k = 0.604170
        29        28        32        31     9        0.000000       -0.822391         1    ;  uncertainty k = 0.769863
        29        28        32        31     9      180.000000       22.038729         2    ;  uncertainty k = 0.271382
        29        28        32        31     9        0.000000       -8.305140         3    ;  uncertainty k = 1.269833
        29        28        32        31     9      180.000000        1.298759         4    ;  uncertainty k = 0.596553
        29        30        31        32     9        0.000000       -0.480158         1    ;  uncertainty k = 0.926462
        29        30        31        32     9      180.000000       16.735216         2    ;  uncertainty k = 1.309662
        29        30        31        32     9        0.000000      -12.155219         3    ;  uncertainty k = 1.939945
        29        30        31        32     9      180.000000        1.991293         4    ;  uncertainty k = 0.750423
        29        30        31        56     9        0.000000        0.154897         1    ;  uncertainty k = 0.970262
        29        30        31        56     9      180.000000       11.842300         2    ;  uncertainty k = 0.614370
        29        30        31        56     9        0.000000        0.922189         3    ;  uncertainty k = 0.757887
        29        30        31        56     9      180.000000        0.630945         4    ;  uncertainty k = 0.172002
        30        29        28        32     9        0.000000       -0.822391         1    ;  uncertainty k = 0.769863
        30        29        28        32     9      180.000000       22.038729         2    ;  uncertainty k = 0.271382
        30        29        28        32     9        0.000000       -8.305140         3    ;  uncertainty k = 1.269833
        30        29        28        32     9      180.000000        1.298759         4    ;  uncertainty k = 0.596553
        32        31        30        55     9        0.000000        0.154897         1    ;  uncertainty k = 0.970262
        32        31        30        55     9      180.000000       11.842300         2    ;  uncertainty k = 0.614370
        32        31        30        55     9        0.000000        0.922189         3    ;  uncertainty k = 0.757887
        32        31        30        55     9      180.000000        0.630945         4    ;  uncertainty k = 0.172002
        42        12        13        44     9        0.000000        0.359872         1    ;  uncertainty k = 0.316166
        42        12        13        44     9      180.000000       -0.360044         2    ;  uncertainty k = 0.197279
        42        12        13        44     9        0.000000        0.364903         3    ;  uncertainty k = 0.128583
        42        12        13        44     9      180.000000       -0.036803         4    ;  uncertainty k = 0.081429
        43        12        13        44     9        0.000000        0.359872         1    ;  uncertainty k = 0.316166
        43        12        13        44     9      180.000000       -0.360044         2    ;  uncertainty k = 0.197279
        43        12        13        44     9        0.000000        0.364903         3    ;  uncertainty k = 0.128583
        43        12        13        44     9      180.000000       -0.036803         4    ;  uncertainty k = 0.081429
        44        13        14        45     9        0.000000        0.423998         1    ;  uncertainty k = 0.297943
        44        13        14        45     9      180.000000       -0.322771         2    ;  uncertainty k = 0.253711
        44        13        14        45     9        0.000000        0.343158         3    ;  uncertainty k = 0.128710
        44        13        14        45     9      180.000000       -0.041305         4    ;  uncertainty k = 0.061986
        44        13        14        46     9        0.000000        0.423998         1    ;  uncertainty k = 0.297943
        44        13        14        46     9      180.000000       -0.322771         2    ;  uncertainty k = 0.253711
        44        13        14        46     9        0.000000        0.343158         3    ;  uncertainty k = 0.128710
        44        13        14        46     9      180.000000       -0.041305         4    ;  uncertainty k = 0.061986
        44        13        17        49     9        0.000000        3.534566         1    ;  uncertainty k = 1.183407
        44        13        17        49     9      180.000000       -0.219654         2    ;  uncertainty k = 0.641097
        44        13        17        49     9        0.000000        0.578188         3    ;  uncertainty k = 0.579178
        44        13        17        49     9      180.000000        0.212498         4    ;  uncertainty k = 0.291708
        47        16        17        49     9        0.000000        0.424000         1    ;  uncertainty k = 0.297943
        47        16        17        49     9      180.000000       -0.322771         2    ;  uncertainty k = 0.253710
        47        16        17        49     9        0.000000        0.343158         3    ;  uncertainty k = 0.128710
        47        16        17        49     9      180.000000       -0.041305         4    ;  uncertainty k = 0.061986
        48        16        17        49     9        0.000000        0.424000         1    ;  uncertainty k = 0.297943
        48        16        17        49     9      180.000000       -0.322771         2    ;  uncertainty k = 0.253710
        48        16        17        49     9        0.000000        0.343158         3    ;  uncertainty k = 0.128710
        48        16        17        49     9      180.000000       -0.041305         4    ;  uncertainty k = 0.061986
        49        17        18        50     9        0.000000        0.359873         1    ;  uncertainty k = 0.316165
        49        17        18        50     9      180.000000       -0.360044         2    ;  uncertainty k = 0.197281
        49        17        18        50     9        0.000000        0.364903         3    ;  uncertainty k = 0.128582
        49        17        18        50     9      180.000000       -0.036803         4    ;  uncertainty k = 0.081429
        49        17        18        51     9        0.000000        0.359873         1    ;  uncertainty k = 0.316165
        49        17        18        51     9      180.000000       -0.360044         2    ;  uncertainty k = 0.197281
        49        17        18        51     9        0.000000        0.364903         3    ;  uncertainty k = 0.128582
        49        17        18        51     9      180.000000       -0.036803         4    ;  uncertainty k = 0.081429
        52        24        25        53     9        0.000000       -0.020811         1    ;  uncertainty k = 0.168739
        52        24        25        53     9      180.000000        7.628630         2    ;  uncertainty k = 0.494067
        52        24        25        53     9        0.000000       -0.419007         3    ;  uncertainty k = 0.338955
        52        24        25        53     9      180.000000        0.009969         4    ;  uncertainty k = 0.203192
        53        25        26        54     9        0.000000        0.041837         1    ;  uncertainty k = 0.123335
        53        25        26        54     9      180.000000        7.941958         2    ;  uncertainty k = 0.372063
        53        25        26        54     9        0.000000       -0.460822         3    ;  uncertainty k = 0.327229
        53        25        26        54     9      180.000000        0.152785         4    ;  uncertainty k = 0.182743
        55        30        31        56     9        0.000000       -0.942648         1    ;  uncertainty k = 1.117582
        55        30        31        56     9      180.000000        4.272735         2    ;  uncertainty k = 0.760818
        55        30        31        56     9        0.000000        1.314863         3    ;  uncertainty k = 0.353594
        55        30        31        56     9      180.000000        0.150448         4    ;  uncertainty k = 0.159865

[ dihedrals ] ; impropers
;       ai        aj        ak        al funct           phase               k        pn
         3         2         4         9     4      180.000000        9.772856         2    ;  uncertainty k = 0.318226
         3         4         9         2     4      180.000000        9.772856         2    ;  uncertainty k = 0.318226
         3         9         2         4     4      180.000000        9.772856         2    ;  uncertainty k = 0.318226
         4         3         5         6     4      180.000000       27.803799         2    ;  uncertainty k = 0.052763
         4         5         6         3     4      180.000000       27.803799         2    ;  uncertainty k = 0.052763
         4         6         3         5     4      180.000000       27.803799         2    ;  uncertainty k = 0.052763
         7         6         8        11     4      180.000000       41.906176         2    ;  uncertainty k = 0.067394
         7         8        11         6     4      180.000000       41.906176         2    ;  uncertainty k = 0.067394
         7        11         6         8     4      180.000000       41.906176         2    ;  uncertainty k = 0.067394
         9         3         8        10     4      180.000000       27.803786         2    ;  uncertainty k = 0.052764
         9         8        10         3     4      180.000000       27.803786         2    ;  uncertainty k = 0.052764
         9        10         3         8     4      180.000000       27.803786         2    ;  uncertainty k = 0.052764
        11         7        12        18     4      180.000000        0.095420         2    ;  uncertainty k = 0.137953
        11        12        18         7     4      180.000000        0.095420         2    ;  uncertainty k = 0.137953
        11        18         7        12     4      180.000000        0.095420         2    ;  uncertainty k = 0.137953
        19        15        20        21     4      180.000000       52.212280         2    ;  uncertainty k = 0.071533
        19        20        21        15     4      180.000000       52.212280         2    ;  uncertainty k = 0.071533
        19        21        15        20     4      180.000000       52.212280         2    ;  uncertainty k = 0.071533
        21        19        22        27     4      180.000000        9.307072         2    ;  uncertainty k = 0.434424
        21        22        27        19     4      180.000000        9.307072         2    ;  uncertainty k = 0.434424
        21        27        19        22     4      180.000000        9.307072         2    ;  uncertainty k = 0.434424
        22        21        23        24     4      180.000000       15.115266         2    ;  uncertainty k = 0.210077
        22        23        24        21     4      180.000000       15.115266         2    ;  uncertainty k = 0.210077
        22        24        21        23     4      180.000000       15.115266         2    ;  uncertainty k = 0.210077
        24        22        25        52     4      180.000000        2.461870         2    ;  uncertainty k = 0.103991
        24        25        52        22     4      180.000000        2.461870         2    ;  uncertainty k = 0.103991
        24        52        22        25     4      180.000000        2.461870         2    ;  uncertainty k = 0.103991
        25        24        26        53     4      180.000000        4.937369         2    ;  uncertainty k = 0.112088
        25        26        53        24     4      180.000000        4.937369         2    ;  uncertainty k = 0.112088
        25        53        24        26     4      180.000000        4.937369         2    ;  uncertainty k = 0.112088
        26        25        27        54     4      180.000000        2.847064         2    ;  uncertainty k = 0.193191
        26        27        54        25     4      180.000000        2.847064         2    ;  uncertainty k = 0.193191
        26        54        25        27     4      180.000000        2.847064         2    ;  uncertainty k = 0.193191
        27        21        26        28     4      180.000000       12.584197         2    ;  uncertainty k = 0.129690
        27        26        28        21     4      180.000000       12.584197         2    ;  uncertainty k = 0.129690
        27        28        21        26     4      180.000000       12.584197         2    ;  uncertainty k = 0.129690
        30        29        31        55     4      180.000000        0.414726         2    ;  uncertainty k = 0.408832
        30        31        55        29     4      180.000000        0.414726         2    ;  uncertainty k = 0.408832
        30        55        29        31     4      180.000000        0.414726         2    ;  uncertainty k = 0.408832
        31        30        32        56     4      180.000000        0.414726         2    ;  uncertainty k = 0.408832
        31        32        56        30     4      180.000000        0.414726         2    ;  uncertainty k = 0.408832
        31        56        30        32     4      180.000000        0.414726         2    ;  uncertainty k = 0.408832

[ pairs ]
;       ai        aj funct
         1         4     1
         1         9     1
         2         5     1
         2         6     1
         2         8     1
         2        10     1
         3         7     1
         3        33     1
         3        34     1
         3        35     1
         3        36     1
         3        37     1
         3        38     1
         3        39     1
         3        40     1
         3        41     1
         4         8     1
         4        10     1
         4        11     1
         5         7     1
         5         9     1
         6         9     1
         6        12     1
         6        18     1
         6        36     1
         6        37     1
         6        38     1
         7        10     1
         7        13     1
         7        17     1
         7        42     1
         7        43     1
         7        50     1
         7        51     1
         8        12     1
         8        18     1
         8        39     1
         8        40     1
         8        41     1
         9        11     1
        11        14     1
        11        16     1
        11        44     1
        11        49     1
        12        15     1
        12        16     1
        12        45     1
        12        46     1
        12        49     1
        12        50     1
        12        51     1
        13        19     1
        13        47     1
        13        48     1
        13        50     1
        13        51     1
        14        18     1
        14        20     1
        14        21     1
        14        42     1
        14        43     1
        14        47     1
        14        48     1
        14        49     1
        15        18     1
        15        22     1
        15        27     1
        15        44     1
        15        49     1
        16        20     1
        16        21     1
        16        44     1
        16        45     1
        16        46     1
        16        50     1
        16        51     1
        17        19     1
        17        42     1
        17        43     1
        17        45     1
        17        46     1
        18        42     1
        18        43     1
        18        44     1
        18        47     1
        18        48     1
        19        23     1
        19        24     1
        19        26     1
        19        28     1
        19        45     1
        19        46     1
        19        47     1
        19        48     1
        20        22     1
        20        27     1
        21        25     1
        21        29     1
        21        32     1
        21        52     1
        21        54     1
        22        26     1
        22        28     1
        22        53     1
        23        25     1
        23        27     1
        23        52     1
        24        27     1
        24        54     1
        25        28     1
        26        29     1
        26        32     1
        26        52     1
        27        30     1
        27        31     1
        27        53     1
        28        54     1
        28        55     1
        28        56     1
        29        56     1
        32        55     1
        42        44     1
        43        44     1
        44        45     1
        44        46     1
        44        49     1
        47        49     1
        48        49     1
        49        50     1
        49        51     1
        52        53     1
        53        54     1
        55        56     1
