; ITP file created by ByteFF-joint-25, 2025-07-14 11:28:32.939280

[ atomtypes ]
;name           bonded.type        at.num        mass        charge   ptype           sigma         epsilon
 c0bf                                   6      0.0000       0.00000       A     3.39773e-01     4.50930e-01    ;  uncertainty sigma = 0.000007, epsilon = 0.000592
 c1bf                                   6      0.0000       0.00000       A     3.31511e-01     4.13156e-01    ;  uncertainty sigma = 0.000012, epsilon = 0.000570
 c2bf                                   6      0.0000       0.00000       A     3.31532e-01     4.13146e-01    ;  uncertainty sigma = 0.000017, epsilon = 0.000944
 c3bf                                   6      0.0000       0.00000       A     3.31550e-01     4.13506e-01    ;  uncertainty sigma = 0.000008, epsilon = 0.000405
 c4bf                                   6      0.0000       0.00000       A     3.39762e-01     4.50288e-01    ;  uncertainty sigma = 0.000024, epsilon = 0.001972
 o5bf                                   8      0.0000       0.00000       A     3.24249e-01     3.88228e-01    ;  uncertainty sigma = 0.000024, epsilon = 0.001013
 n6bf                                   7      0.0000       0.00000       A     3.38425e-01     3.93085e-01    ;  uncertainty sigma = 0.000019, epsilon = 0.000877
 c7bf                                   6      0.0000       0.00000       A     3.31535e-01     4.13152e-01    ;  uncertainty sigma = 0.000018, epsilon = 0.000804
 n8bf                                   7      0.0000       0.00000       A     3.38407e-01     3.93685e-01    ;  uncertainty sigma = 0.000013, epsilon = 0.000791
 n9bf                                   7      0.0000       0.00000       A     3.18950e-01     8.99076e-01    ;  uncertainty sigma = 0.000052, epsilon = 0.003577
 c10bf                                  6      0.0000       0.00000       A     3.39774e-01     4.50953e-01    ;  uncertainty sigma = 0.000012, epsilon = 0.001229
 c11bf                                  6      0.0000       0.00000       A     3.39776e-01     4.51373e-01    ;  uncertainty sigma = 0.000009, epsilon = 0.000969
 c12bf                                  6      0.0000       0.00000       A     3.39784e-01     4.51219e-01    ;  uncertainty sigma = 0.000006, epsilon = 0.000696
 n13bf                                  7      0.0000       0.00000       A     3.18086e-01     6.84039e-01    ;  uncertainty sigma = 0.000014, epsilon = 0.001467
 c14bf                                  6      0.0000       0.00000       A     3.39784e-01     4.51219e-01    ;  uncertainty sigma = 0.000006, epsilon = 0.000696
 c15bf                                  6      0.0000       0.00000       A     3.39776e-01     4.51373e-01    ;  uncertainty sigma = 0.000009, epsilon = 0.000969
 c16bf                                  6      0.0000       0.00000       A     3.39774e-01     4.50953e-01    ;  uncertainty sigma = 0.000012, epsilon = 0.001229
 c17bf                                  6      0.0000       0.00000       A     3.31486e-01     4.13134e-01    ;  uncertainty sigma = 0.000026, epsilon = 0.002146
 o18bf                                  8      0.0000       0.00000       A     3.04851e-01     6.12019e-01    ;  uncertainty sigma = 0.000026, epsilon = 0.001020
 c19bf                                  6      0.0000       0.00000       A     3.31488e-01     4.12415e-01    ;  uncertainty sigma = 0.000034, epsilon = 0.001171
 c20bf                                  6      0.0000       0.00000       A     3.31513e-01     4.12834e-01    ;  uncertainty sigma = 0.000016, epsilon = 0.001291
 f21bf                                  9      0.0000       0.00000       A     3.03451e-01     3.47872e-01    ;  uncertainty sigma = 0.000029, epsilon = 0.000470
 c22bf                                  6      0.0000       0.00000       A     3.31522e-01     4.13335e-01    ;  uncertainty sigma = 0.000005, epsilon = 0.000662
 c23bf                                  6      0.0000       0.00000       A     3.31521e-01     4.13421e-01    ;  uncertainty sigma = 0.000006, epsilon = 0.000781
 c24bf                                  6      0.0000       0.00000       A     3.31510e-01     4.13240e-01    ;  uncertainty sigma = 0.000014, epsilon = 0.000923
 c25bf                                  6      0.0000       0.00000       A     3.31553e-01     4.13601e-01    ;  uncertainty sigma = 0.000013, epsilon = 0.001582
 n26bf                                  7      0.0000       0.00000       A     3.20569e-01     8.54049e-01    ;  uncertainty sigma = 0.000030, epsilon = 0.002792
 n27bf                                  7      0.0000       0.00000       A     3.38413e-01     3.93694e-01    ;  uncertainty sigma = 0.000010, epsilon = 0.000693
 c28bf                                  6      0.0000       0.00000       A     3.31537e-01     4.13587e-01    ;  uncertainty sigma = 0.000007, epsilon = 0.000835
 c29bf                                  6      0.0000       0.00000       A     3.31537e-01     4.13587e-01    ;  uncertainty sigma = 0.000007, epsilon = 0.000835
 n30bf                                  7      0.0000       0.00000       A     3.38413e-01     3.93694e-01    ;  uncertainty sigma = 0.000010, epsilon = 0.000693
 h31bf                                  1      0.0000       0.00000       A     2.60034e-01     8.66332e-02    ;  uncertainty sigma = 0.000007, epsilon = 0.000537
 h32bf                                  1      0.0000       0.00000       A     2.60034e-01     8.66332e-02    ;  uncertainty sigma = 0.000007, epsilon = 0.000537
 h33bf                                  1      0.0000       0.00000       A     2.60034e-01     8.66332e-02    ;  uncertainty sigma = 0.000007, epsilon = 0.000537
 h34bf                                  1      0.0000       0.00000       A     2.62582e-01     6.71201e-02    ;  uncertainty sigma = 0.000012, epsilon = 0.000330
 h35bf                                  1      0.0000       0.00000       A     2.42243e-01     8.64722e-02    ;  uncertainty sigma = 0.000037, epsilon = 0.000435
 h36bf                                  1      0.0000       0.00000       A     2.42243e-01     8.64722e-02    ;  uncertainty sigma = 0.000037, epsilon = 0.000435
 h37bf                                  1      0.0000       0.00000       A     5.37945e-02     1.91969e-02    ;  uncertainty sigma = 0.000129, epsilon = 0.000978
 h38bf                                  1      0.0000       0.00000       A     2.42199e-01     8.66324e-02    ;  uncertainty sigma = 0.000024, epsilon = 0.001250
 h39bf                                  1      0.0000       0.00000       A     2.42199e-01     8.66324e-02    ;  uncertainty sigma = 0.000024, epsilon = 0.001250
 h40bf                                  1      0.0000       0.00000       A     2.59994e-01     8.68892e-02    ;  uncertainty sigma = 0.000026, epsilon = 0.000553
 h41bf                                  1      0.0000       0.00000       A     2.42194e-01     8.66543e-02    ;  uncertainty sigma = 0.000021, epsilon = 0.000863
 h42bf                                  1      0.0000       0.00000       A     2.42194e-01     8.66543e-02    ;  uncertainty sigma = 0.000021, epsilon = 0.000863
 h43bf                                  1      0.0000       0.00000       A     2.42194e-01     8.66545e-02    ;  uncertainty sigma = 0.000021, epsilon = 0.000863
 h44bf                                  1      0.0000       0.00000       A     2.42194e-01     8.66545e-02    ;  uncertainty sigma = 0.000021, epsilon = 0.000863
 h45bf                                  1      0.0000       0.00000       A     2.59994e-01     8.68892e-02    ;  uncertainty sigma = 0.000026, epsilon = 0.000553
 h46bf                                  1      0.0000       0.00000       A     2.42199e-01     8.66324e-02    ;  uncertainty sigma = 0.000024, epsilon = 0.001250
 h47bf                                  1      0.0000       0.00000       A     2.42199e-01     8.66324e-02    ;  uncertainty sigma = 0.000024, epsilon = 0.001250
 h48bf                                  1      0.0000       0.00000       A     2.62565e-01     6.70682e-02    ;  uncertainty sigma = 0.000010, epsilon = 0.000430
 h49bf                                  1      0.0000       0.00000       A     2.62565e-01     6.69658e-02    ;  uncertainty sigma = 0.000011, epsilon = 0.000532
 h50bf                                  1      0.0000       0.00000       A     2.62555e-01     6.71502e-02    ;  uncertainty sigma = 0.000013, epsilon = 0.000465
 h51bf                                  1      0.0000       0.00000       A     2.53604e-01     6.70805e-02    ;  uncertainty sigma = 0.000028, epsilon = 0.000600
 h52bf                                  1      0.0000       0.00000       A     2.53604e-01     6.70806e-02    ;  uncertainty sigma = 0.000028, epsilon = 0.000600

[ moleculetype ]
;name             nrexcl
 MOL                   3

[ atoms ]
;       nr            type      resi   res      atom      cgnr      charge          mass ; qtot
         1            c0bf         1   UNL        c0         1    -0.15100       12.0110 ; qtot   -0.151
         2            c1bf         1   UNL        c1         2     0.48791       12.0110 ; qtot    0.337
         3            c2bf         1   UNL        c2         3    -0.38936       12.0110 ; qtot   -0.052
         4            c3bf         1   UNL        c3         4     0.44871       12.0110 ; qtot    0.396
         5            c4bf         1   UNL        c4         5     0.08474       12.0110 ; qtot    0.481
         6            o5bf         1   UNL        o5         6    -0.59545       15.9990 ; qtot   -0.114
         7            n6bf         1   UNL        n6         7    -0.77711       14.0070 ; qtot   -0.892
         8            c7bf         1   UNL        c7         8     0.91036       12.0110 ; qtot    0.019
         9            n8bf         1   UNL        n8         9    -0.77533       14.0070 ; qtot   -0.757
        10            n9bf         1   UNL        n9        10    -0.79043       14.0070 ; qtot   -1.547
        11           c10bf         1   UNL       c10        11     0.23390       12.0110 ; qtot   -1.313
        12           c11bf         1   UNL       c11        12    -0.09743       12.0110 ; qtot   -1.410
        13           c12bf         1   UNL       c12        13     0.11057       12.0110 ; qtot   -1.300
        14           n13bf         1   UNL       n13        14    -0.47239       14.0070 ; qtot   -1.772
        15           c14bf         1   UNL       c14        15     0.11057       12.0110 ; qtot   -1.662
        16           c15bf         1   UNL       c15        16    -0.09743       12.0110 ; qtot   -1.759
        17           c16bf         1   UNL       c16        17     0.23390       12.0110 ; qtot   -1.525
        18           c17bf         1   UNL       c17        18     0.70764       12.0110 ; qtot   -0.818
        19           o18bf         1   UNL       o18        19    -0.58293       15.9990 ; qtot   -1.401
        20           c19bf         1   UNL       c19        20    -0.15596       12.0110 ; qtot   -1.557
        21           c20bf         1   UNL       c20        21     0.16292       12.0110 ; qtot   -1.394
        22           f21bf         1   UNL       f21        22    -0.13494       18.9980 ; qtot   -1.529
        23           c22bf         1   UNL       c22        23    -0.15817       12.0110 ; qtot   -1.687
        24           c23bf         1   UNL       c23        24    -0.08197       12.0110 ; qtot   -1.769
        25           c24bf         1   UNL       c24        25    -0.13048       12.0110 ; qtot   -1.899
        26           c25bf         1   UNL       c25        26     0.07222       12.0110 ; qtot   -1.827
        27           n26bf         1   UNL       n26        27     0.30201       14.0070 ; qtot   -1.525
        28           n27bf         1   UNL       n27        28    -0.47243       14.0070 ; qtot   -1.997
        29           c28bf         1   UNL       c28        29     0.20275       12.0110 ; qtot   -1.795
        30           c29bf         1   UNL       c29        30     0.20275       12.0110 ; qtot   -1.592
        31           n30bf         1   UNL       n30        31    -0.47243       14.0070 ; qtot   -2.064
        32           h31bf         1   UNL       h31        32     0.05868        1.0080 ; qtot   -2.006
        33           h32bf         1   UNL       h32        33     0.05868        1.0080 ; qtot   -1.947
        34           h33bf         1   UNL       h33        34     0.05868        1.0080 ; qtot   -1.888
        35           h34bf         1   UNL       h34        35     0.15928        1.0080 ; qtot   -1.729
        36           h35bf         1   UNL       h35        36     0.05798        1.0080 ; qtot   -1.671
        37           h36bf         1   UNL       h36        37     0.05798        1.0080 ; qtot   -1.613
        38           h37bf         1   UNL       h37        38     0.41578        1.0080 ; qtot   -1.197
        39           h38bf         1   UNL       h38        39     0.05891        1.0080 ; qtot   -1.138
        40           h39bf         1   UNL       h39        40     0.05891        1.0080 ; qtot   -1.079
        41           h40bf         1   UNL       h40        41     0.07237        1.0080 ; qtot   -1.007
        42           h41bf         1   UNL       h41        42     0.05981        1.0080 ; qtot   -0.947
        43           h42bf         1   UNL       h42        43     0.05981        1.0080 ; qtot   -0.887
        44           h43bf         1   UNL       h43        44     0.05981        1.0080 ; qtot   -0.828
        45           h44bf         1   UNL       h44        45     0.05981        1.0080 ; qtot   -0.768
        46           h45bf         1   UNL       h45        46     0.07237        1.0080 ; qtot   -0.695
        47           h46bf         1   UNL       h46        47     0.05891        1.0080 ; qtot   -0.637
        48           h47bf         1   UNL       h47        48     0.05891        1.0080 ; qtot   -0.578
        49           h48bf         1   UNL       h48        49     0.15846        1.0080 ; qtot   -0.419
        50           h49bf         1   UNL       h49        50     0.14574        1.0080 ; qtot   -0.273
        51           h50bf         1   UNL       h50        51     0.16350        1.0080 ; qtot   -0.110
        52           h51bf         1   UNL       h51        52     0.05496        1.0080 ; qtot   -0.055
        53           h52bf         1   UNL       h52        53     0.05495        1.0080 ; qtot    0.000

[ bonds ]
;       ai        aj funct               r               k
         1         2     1        0.150614   258022.101074    ;  uncertainty r = 0.000035, k = 5.212771
         1        32     1        0.109444   310537.557666    ;  uncertainty r = 0.000015, k = 1.598085
         1        33     1        0.109444   310537.557666    ;  uncertainty r = 0.000015, k = 1.598085
         1        34     1        0.109444   310537.557666    ;  uncertainty r = 0.000015, k = 1.598085
         2         3     1        0.140406   435810.996875    ;  uncertainty r = 0.000064, k = 5.912253
         2         9     1        0.134217   464802.357813    ;  uncertainty r = 0.000042, k = 7.787403
         3         4     1        0.140047   406578.284717    ;  uncertainty r = 0.000110, k = 15.677548
         3        35     1        0.108756   344094.979297    ;  uncertainty r = 0.000027, k = 3.287620
         4         5     1        0.150522   238627.509229    ;  uncertainty r = 0.000184, k = 6.282573
         4         7     1        0.134126   448076.674805    ;  uncertainty r = 0.000154, k = 8.832448
         5         6     1        0.141559   280053.705908    ;  uncertainty r = 0.000176, k = 8.941961
         5        36     1        0.109833   306860.699121    ;  uncertainty r = 0.000023, k = 1.728850
         5        37     1        0.109833   306860.699121    ;  uncertainty r = 0.000023, k = 1.728850
         6        38     1        0.097079   464062.700977    ;  uncertainty r = 0.000026, k = 3.825919
         7         8     1        0.135774   482899.792188    ;  uncertainty r = 0.000128, k = 8.633946
         8         9     1        0.135506   496753.980469    ;  uncertainty r = 0.000085, k = 14.510421
         8        10     1        0.136722   316321.380957    ;  uncertainty r = 0.000097, k = 18.114238
        10        11     1        0.146381   223708.423486    ;  uncertainty r = 0.000058, k = 14.342670
        10        17     1        0.146381   223708.423486    ;  uncertainty r = 0.000058, k = 14.342768
        11        12     1        0.153378   218045.467334    ;  uncertainty r = 0.000067, k = 7.088220
        11        39     1        0.109551   306518.450781    ;  uncertainty r = 0.000069, k = 2.534282
        11        40     1        0.109551   306518.450781    ;  uncertainty r = 0.000069, k = 2.534282
        12        13     1        0.153480   216617.049121    ;  uncertainty r = 0.000023, k = 7.412723
        12        16     1        0.154451   200722.496875    ;  uncertainty r = 0.000080, k = 20.796785
        12        41     1        0.109350   305021.261133    ;  uncertainty r = 0.000029, k = 3.829702
        13        14     1        0.146976   241154.380664    ;  uncertainty r = 0.000047, k = 15.575172
        13        42     1        0.109439   307434.875488    ;  uncertainty r = 0.000026, k = 1.171544
        13        43     1        0.109439   307434.875488    ;  uncertainty r = 0.000026, k = 1.171544
        14        15     1        0.146976   241154.380664    ;  uncertainty r = 0.000047, k = 15.575144
        14        18     1        0.135088   335723.021045    ;  uncertainty r = 0.000166, k = 15.024462
        15        16     1        0.153480   216617.049121    ;  uncertainty r = 0.000023, k = 7.412681
        15        44     1        0.109439   307434.875488    ;  uncertainty r = 0.000026, k = 1.171521
        15        45     1        0.109439   307434.875488    ;  uncertainty r = 0.000026, k = 1.171521
        16        17     1        0.153378   218045.441797    ;  uncertainty r = 0.000067, k = 7.088228
        16        46     1        0.109350   305021.261133    ;  uncertainty r = 0.000029, k = 3.829660
        17        47     1        0.109551   306518.450781    ;  uncertainty r = 0.000069, k = 2.534287
        17        48     1        0.109551   306518.450781    ;  uncertainty r = 0.000069, k = 2.534287
        18        19     1        0.123492   739384.865723    ;  uncertainty r = 0.000039, k = 10.151716
        18        20     1        0.151093   272101.603271    ;  uncertainty r = 0.000079, k = 31.154101
        20        21     1        0.139399   331888.649609    ;  uncertainty r = 0.000087, k = 16.801357
        20        26     1        0.139529   322378.221484    ;  uncertainty r = 0.000112, k = 6.618765
        21        22     1        0.135284   339697.693359    ;  uncertainty r = 0.000139, k = 6.883764
        21        23     1        0.138876   355374.082080    ;  uncertainty r = 0.000029, k = 4.848304
        23        24     1        0.139230   385818.044873    ;  uncertainty r = 0.000031, k = 3.156029
        23        49     1        0.108754   335743.833789    ;  uncertainty r = 0.000014, k = 1.461762
        24        25     1        0.139117   371572.781299    ;  uncertainty r = 0.000042, k = 2.923689
        24        50     1        0.108705   332118.687891    ;  uncertainty r = 0.000011, k = 1.593644
        25        26     1        0.139176   333973.831201    ;  uncertainty r = 0.000089, k = 2.958672
        25        51     1        0.108623   333131.336426    ;  uncertainty r = 0.000019, k = 1.837628
        26        27     1        0.140554   317671.476855    ;  uncertainty r = 0.000102, k = 8.472881
        27        28     1        0.134456   229486.015723    ;  uncertainty r = 0.000080, k = 10.859863
        27        31     1        0.134456   229486.015723    ;  uncertainty r = 0.000080, k = 10.859863
        28        29     1        0.132965   463550.937305    ;  uncertainty r = 0.000052, k = 7.730519
        29        30     1        0.141781   249584.001709    ;  uncertainty r = 0.000103, k = 15.332670
        29        52     1        0.108418   339910.136572    ;  uncertainty r = 0.000037, k = 1.124302
        30        31     1        0.132965   463550.937305    ;  uncertainty r = 0.000052, k = 7.730519
        30        53     1        0.108418   339910.136572    ;  uncertainty r = 0.000037, k = 1.124299

[ angles ]
;       ai        aj        ak funct           theta             cth
         1         2         3     1      122.254883      416.504668    ;  uncertainty theta = 0.003160, k = 0.170031
         1         2         9     1      118.749916      507.546282    ;  uncertainty theta = 0.002246, k = 0.187004
         2         1        32     1      108.905907      384.902750    ;  uncertainty theta = 0.001355, k = 0.048593
         2         1        33     1      108.905907      384.902750    ;  uncertainty theta = 0.001355, k = 0.048593
         2         1        34     1      108.905907      384.902750    ;  uncertainty theta = 0.001355, k = 0.048593
         2         3         4     1      116.104233      466.093042    ;  uncertainty theta = 0.005142, k = 0.273493
         2         3        35     1      122.157738      274.324066    ;  uncertainty theta = 0.001534, k = 0.059806
         2         9         8     1      115.511269      409.364907    ;  uncertainty theta = 0.007146, k = 0.259751
         3         2         9     1      120.534256      656.459104    ;  uncertainty theta = 0.004881, k = 0.130391
         3         4         5     1      122.891457      389.112926    ;  uncertainty theta = 0.004688, k = 0.126085
         3         4         7     1      121.875076      661.799680    ;  uncertainty theta = 0.005655, k = 0.066251
         4         3        35     1      122.231888      268.380400    ;  uncertainty theta = 0.001945, k = 0.118715
         4         5         6     1      109.737526      634.089746    ;  uncertainty theta = 0.004343, k = 0.238703
         4         5        36     1      108.170029      398.607910    ;  uncertainty theta = 0.003773, k = 0.095487
         4         5        37     1      108.170029      398.607910    ;  uncertainty theta = 0.003773, k = 0.095487
         4         7         8     1      116.630714      388.906650    ;  uncertainty theta = 0.009383, k = 0.351066
         5         4         7     1      117.578712      447.890573    ;  uncertainty theta = 0.006925, k = 0.078924
         5         6        38     1      107.331032      459.533644    ;  uncertainty theta = 0.001770, k = 0.072006
         6         5        36     1      108.202675      478.505609    ;  uncertainty theta = 0.004466, k = 0.064931
         6         5        37     1      108.202675      478.505609    ;  uncertainty theta = 0.004466, k = 0.064931
         7         8         9     1      129.281525      722.434737    ;  uncertainty theta = 0.004914, k = 0.139936
         7         8        10     1      119.706985      561.247184    ;  uncertainty theta = 0.007951, k = 0.190297
         8        10        11     1      113.678940      430.235620    ;  uncertainty theta = 0.004047, k = 0.211836
         8        10        17     1      113.678940      430.235620    ;  uncertainty theta = 0.004047, k = 0.211836
         9         8        10     1      119.600586      553.362602    ;  uncertainty theta = 0.007487, k = 0.186819
        10        11        12     1      105.543358      834.662672    ;  uncertainty theta = 0.001817, k = 0.093259
        10        11        39     1      108.562340      456.415882    ;  uncertainty theta = 0.001202, k = 0.062362
        10        11        40     1      108.562340      456.415882    ;  uncertainty theta = 0.001202, k = 0.062362
        10        17        16     1      105.543358      834.662672    ;  uncertainty theta = 0.001817, k = 0.093260
        10        17        47     1      108.562340      456.415882    ;  uncertainty theta = 0.001202, k = 0.062362
        10        17        48     1      108.562340      456.415882    ;  uncertainty theta = 0.001202, k = 0.062362
        11        10        17     1      112.639450      489.228386    ;  uncertainty theta = 0.009972, k = 0.334405
        11        12        13     1      113.001526      495.885112    ;  uncertainty theta = 0.002967, k = 0.272650
        11        12        16     1      106.407143      696.228300    ;  uncertainty theta = 0.000820, k = 0.121960
        11        12        41     1      108.909218      387.529593    ;  uncertainty theta = 0.002428, k = 0.196423
        12        11        39     1      109.942749      401.681046    ;  uncertainty theta = 0.001744, k = 0.042629
        12        11        40     1      109.942749      401.681046    ;  uncertainty theta = 0.001744, k = 0.042629
        12        13        14     1      106.005104      800.142884    ;  uncertainty theta = 0.002837, k = 0.185313
        12        13        42     1      109.812805      398.157914    ;  uncertainty theta = 0.002056, k = 0.096133
        12        13        43     1      109.812805      398.157914    ;  uncertainty theta = 0.002056, k = 0.096133
        12        16        15     1      106.536072      683.535718    ;  uncertainty theta = 0.002057, k = 0.120116
        12        16        17     1      106.407143      696.228492    ;  uncertainty theta = 0.000820, k = 0.121960
        12        16        46     1      109.787766      408.249925    ;  uncertainty theta = 0.001833, k = 0.098421
        13        12        16     1      106.536072      683.535654    ;  uncertainty theta = 0.002057, k = 0.120117
        13        12        41     1      108.976547      381.109245    ;  uncertainty theta = 0.002391, k = 0.150517
        13        14        15     1      114.311745      540.101883    ;  uncertainty theta = 0.003229, k = 0.142692
        13        14        18     1      117.974327      368.182647    ;  uncertainty theta = 0.003980, k = 0.157584
        14        13        42     1      109.203384      457.892789    ;  uncertainty theta = 0.001598, k = 0.109127
        14        13        43     1      109.203384      457.892789    ;  uncertainty theta = 0.001598, k = 0.109127
        14        15        16     1      106.005104      800.142884    ;  uncertainty theta = 0.002837, k = 0.185312
        14        15        44     1      109.203384      457.892789    ;  uncertainty theta = 0.001598, k = 0.109127
        14        15        45     1      109.203384      457.892789    ;  uncertainty theta = 0.001598, k = 0.109127
        14        18        19     1      124.922256      740.345444    ;  uncertainty theta = 0.002458, k = 0.115631
        14        18        20     1      112.159889      368.733068    ;  uncertainty theta = 0.002788, k = 0.265066
        15        14        18     1      117.974327      368.182647    ;  uncertainty theta = 0.003980, k = 0.157584
        15        16        17     1      113.001526      495.885112    ;  uncertainty theta = 0.002967, k = 0.272650
        15        16        46     1      108.976547      381.109245    ;  uncertainty theta = 0.002391, k = 0.150517
        16        12        41     1      109.787766      408.249925    ;  uncertainty theta = 0.001833, k = 0.098421
        16        15        44     1      109.812805      398.157914    ;  uncertainty theta = 0.002056, k = 0.096133
        16        15        45     1      109.812805      398.157914    ;  uncertainty theta = 0.002056, k = 0.096133
        16        17        47     1      109.942749      401.681014    ;  uncertainty theta = 0.001744, k = 0.042629
        16        17        48     1      109.942749      401.681014    ;  uncertainty theta = 0.001744, k = 0.042629
        17        16        46     1      108.909218      387.529561    ;  uncertainty theta = 0.002428, k = 0.196423
        18        20        21     1      122.644753      394.633059    ;  uncertainty theta = 0.009716, k = 0.281698
        18        20        26     1      121.727440      360.483272    ;  uncertainty theta = 0.007459, k = 0.258991
        19        18        20     1      123.973495      474.716636    ;  uncertainty theta = 0.004986, k = 0.295298
        20        21        22     1      116.293533      481.718082    ;  uncertainty theta = 0.003628, k = 0.151958
        20        21        23     1      125.257851      358.228537    ;  uncertainty theta = 0.006392, k = 0.161234
        20        26        25     1      126.248352      383.964293    ;  uncertainty theta = 0.008470, k = 0.143041
        20        26        27     1      115.625549      424.401189    ;  uncertainty theta = 0.005276, k = 0.425221
        21        20        26     1      120.519875      451.018997    ;  uncertainty theta = 0.010533, k = 0.145475
        21        23        24     1      116.906998      480.293111    ;  uncertainty theta = 0.004692, k = 0.077746
        21        23        49     1      120.257713      280.421849    ;  uncertainty theta = 0.001644, k = 0.051464
        22        21        23     1      119.307655      515.150978    ;  uncertainty theta = 0.004276, k = 0.124646
        23        24        25     1      119.580154      501.480038    ;  uncertainty theta = 0.001152, k = 0.050795
        23        24        50     1      120.085129      283.076623    ;  uncertainty theta = 0.000551, k = 0.029815
        24        23        49     1      122.091469      282.690757    ;  uncertainty theta = 0.001292, k = 0.025850
        24        25        26     1      119.295853      511.815512    ;  uncertainty theta = 0.002200, k = 0.078353
        24        25        51     1      121.511391      292.121324    ;  uncertainty theta = 0.001401, k = 0.054323
        25        24        50     1      119.901108      278.613917    ;  uncertainty theta = 0.000633, k = 0.016225
        25        26        27     1      118.568016      453.799094    ;  uncertainty theta = 0.002843, k = 0.118727
        26        25        51     1      118.140259      263.598991    ;  uncertainty theta = 0.002697, k = 0.141621
        26        27        28     1      116.169716      430.317850    ;  uncertainty theta = 0.006654, k = 0.182017
        26        27        31     1      116.169716      430.317850    ;  uncertainty theta = 0.006654, k = 0.182017
        27        28        29     1      105.336914      920.571231    ;  uncertainty theta = 0.004509, k = 0.170853
        27        31        30     1      105.336914      920.571231    ;  uncertainty theta = 0.004509, k = 0.170853
        28        27        31     1      113.935104     1160.946488    ;  uncertainty theta = 0.004391, k = 0.191360
        28        29        30     1      108.874611      885.375859    ;  uncertainty theta = 0.003815, k = 0.097431
        28        29        52     1      119.790878      274.219077    ;  uncertainty theta = 0.003825, k = 0.115835
        29        30        31     1      108.874611      885.375859    ;  uncertainty theta = 0.003815, k = 0.097431
        29        30        53     1      127.065453      242.460680    ;  uncertainty theta = 0.004115, k = 0.077998
        30        29        52     1      127.065453      242.460680    ;  uncertainty theta = 0.004115, k = 0.077998
        31        30        53     1      119.790878      274.219077    ;  uncertainty theta = 0.003825, k = 0.115835
        32         1        33     1      107.153786      312.530199    ;  uncertainty theta = 0.001242, k = 0.032266
        32         1        34     1      107.153786      312.530199    ;  uncertainty theta = 0.001242, k = 0.032266
        33         1        34     1      107.153786      312.530199    ;  uncertainty theta = 0.001242, k = 0.032266
        36         5        37     1      107.718178      325.659976    ;  uncertainty theta = 0.005331, k = 0.098231
        39        11        40     1      105.123001      312.324913    ;  uncertainty theta = 0.002382, k = 0.114503
        42        13        43     1      105.371437      309.387890    ;  uncertainty theta = 0.003860, k = 0.079571
        44        15        45     1      105.371437      309.387890    ;  uncertainty theta = 0.003860, k = 0.079571
        47        17        48     1      105.123001      312.324913    ;  uncertainty theta = 0.002382, k = 0.114503

[ dihedrals ] ; propers for gromacs 4.5 or higher, use funct 9
;       ai        aj        ak        al funct           phase               k        pn
         1         2         3         4     9        0.000000        0.014628         1    ;  uncertainty k = 0.297485
         1         2         3         4     9      180.000000        7.637616         2    ;  uncertainty k = 0.456309
         1         2         3         4     9        0.000000        0.955260         3    ;  uncertainty k = 0.193975
         1         2         3         4     9      180.000000        1.294687         4    ;  uncertainty k = 0.232094
         1         2         3        35     9        0.000000       -0.173337         1    ;  uncertainty k = 0.308593
         1         2         3        35     9      180.000000        6.892693         2    ;  uncertainty k = 0.290022
         1         2         3        35     9        0.000000        0.642689         3    ;  uncertainty k = 0.295153
         1         2         3        35     9      180.000000        0.774611         4    ;  uncertainty k = 0.261302
         1         2         9         8     9        0.000000        0.054205         1    ;  uncertainty k = 1.013641
         1         2         9         8     9      180.000000       14.998854         2    ;  uncertainty k = 0.550333
         1         2         9         8     9        0.000000        2.390316         3    ;  uncertainty k = 0.346897
         1         2         9         8     9      180.000000        1.665416         4    ;  uncertainty k = 0.465809
         2         3         4         5     9        0.000000       -0.036050         1    ;  uncertainty k = 0.377831
         2         3         4         5     9      180.000000        7.203431         2    ;  uncertainty k = 0.176359
         2         3         4         5     9        0.000000        0.868170         3    ;  uncertainty k = 0.371687
         2         3         4         5     9      180.000000        1.331833         4    ;  uncertainty k = 0.101300
         2         3         4         7     9        0.000000       -0.283975         1    ;  uncertainty k = 0.424265
         2         3         4         7     9      180.000000       12.019751         2    ;  uncertainty k = 0.503517
         2         3         4         7     9        0.000000       -1.353574         3    ;  uncertainty k = 0.771463
         2         3         4         7     9      180.000000        0.992905         4    ;  uncertainty k = 0.128380
         2         9         8         7     9        0.000000       -0.385506         1    ;  uncertainty k = 0.861796
         2         9         8         7     9      180.000000        8.840011         2    ;  uncertainty k = 0.696531
         2         9         8         7     9        0.000000        0.754503         3    ;  uncertainty k = 0.583372
         2         9         8         7     9      180.000000        0.767701         4    ;  uncertainty k = 0.145857
         2         9         8        10     9        0.000000        0.551218         1    ;  uncertainty k = 0.973069
         2         9         8        10     9      180.000000       10.484106         2    ;  uncertainty k = 0.441391
         2         9         8        10     9        0.000000        1.724207         3    ;  uncertainty k = 0.342806
         2         9         8        10     9      180.000000        0.988888         4    ;  uncertainty k = 0.144272
         3         2         1        32     9        0.000000       -0.271571         1    ;  uncertainty k = 0.234422
         3         2         1        32     9      180.000000        2.296935         2    ;  uncertainty k = 0.226637
         3         2         1        32     9        0.000000        0.288579         3    ;  uncertainty k = 0.038938
         3         2         1        32     9      180.000000        0.145971         4    ;  uncertainty k = 0.028299
         3         2         1        33     9        0.000000       -0.271571         1    ;  uncertainty k = 0.234422
         3         2         1        33     9      180.000000        2.296935         2    ;  uncertainty k = 0.226637
         3         2         1        33     9        0.000000        0.288579         3    ;  uncertainty k = 0.038938
         3         2         1        33     9      180.000000        0.145971         4    ;  uncertainty k = 0.028299
         3         2         1        34     9        0.000000       -0.271571         1    ;  uncertainty k = 0.234422
         3         2         1        34     9      180.000000        2.296935         2    ;  uncertainty k = 0.226637
         3         2         1        34     9        0.000000        0.288579         3    ;  uncertainty k = 0.038938
         3         2         1        34     9      180.000000        0.145971         4    ;  uncertainty k = 0.028299
         3         2         9         8     9        0.000000       -0.284042         1    ;  uncertainty k = 0.445559
         3         2         9         8     9      180.000000       15.228578         2    ;  uncertainty k = 0.199280
         3         2         9         8     9        0.000000        0.240301         3    ;  uncertainty k = 0.471597
         3         2         9         8     9      180.000000        1.113144         4    ;  uncertainty k = 0.343958
         3         4         5         6     9        0.000000       -0.787571         1    ;  uncertainty k = 0.988187
         3         4         5         6     9      180.000000        4.060013         2    ;  uncertainty k = 0.253561
         3         4         5         6     9        0.000000        0.391420         3    ;  uncertainty k = 0.222447
         3         4         5         6     9      180.000000        0.475497         4    ;  uncertainty k = 0.047300
         3         4         5        36     9        0.000000       -1.033043         1    ;  uncertainty k = 0.569588
         3         4         5        36     9      180.000000        2.563231         2    ;  uncertainty k = 0.383321
         3         4         5        36     9        0.000000        0.419187         3    ;  uncertainty k = 0.123342
         3         4         5        36     9      180.000000        0.110735         4    ;  uncertainty k = 0.049915
         3         4         5        37     9        0.000000       -1.033043         1    ;  uncertainty k = 0.569588
         3         4         5        37     9      180.000000        2.563231         2    ;  uncertainty k = 0.383321
         3         4         5        37     9        0.000000        0.419187         3    ;  uncertainty k = 0.123342
         3         4         5        37     9      180.000000        0.110735         4    ;  uncertainty k = 0.049915
         3         4         7         8     9        0.000000       -0.421918         1    ;  uncertainty k = 0.656655
         3         4         7         8     9      180.000000       14.957912         2    ;  uncertainty k = 0.174150
         3         4         7         8     9        0.000000        0.270479         3    ;  uncertainty k = 0.499386
         3         4         7         8     9      180.000000        1.170367         4    ;  uncertainty k = 0.333917
         4         3         2         9     9        0.000000       -0.152034         1    ;  uncertainty k = 0.294369
         4         3         2         9     9      180.000000       11.567584         2    ;  uncertainty k = 0.393780
         4         3         2         9     9        0.000000       -1.428114         3    ;  uncertainty k = 0.648667
         4         3         2         9     9      180.000000        0.982677         4    ;  uncertainty k = 0.071965
         4         5         6        38     9        0.000000       13.094969         1    ;  uncertainty k = 0.293356
         4         5         6        38     9      180.000000       -4.294344         2    ;  uncertainty k = 0.429477
         4         5         6        38     9        0.000000        0.994850         3    ;  uncertainty k = 0.298860
         4         5         6        38     9      180.000000        0.103704         4    ;  uncertainty k = 0.041832
         4         7         8         9     9        0.000000       -0.586214         1    ;  uncertainty k = 0.871647
         4         7         8         9     9      180.000000        8.283419         2    ;  uncertainty k = 0.863577
         4         7         8         9     9        0.000000        0.736099         3    ;  uncertainty k = 0.563995
         4         7         8         9     9      180.000000        0.748198         4    ;  uncertainty k = 0.124419
         4         7         8        10     9        0.000000        0.413117         1    ;  uncertainty k = 0.858458
         4         7         8        10     9      180.000000       10.528984         2    ;  uncertainty k = 0.404682
         4         7         8        10     9        0.000000        1.824249         3    ;  uncertainty k = 0.260815
         4         7         8        10     9      180.000000        0.993063         4    ;  uncertainty k = 0.118822
         5         4         3        35     9        0.000000        0.032232         1    ;  uncertainty k = 0.947923
         5         4         3        35     9      180.000000        6.411591         2    ;  uncertainty k = 0.210252
         5         4         3        35     9        0.000000        0.632754         3    ;  uncertainty k = 0.351938
         5         4         3        35     9      180.000000        0.816566         4    ;  uncertainty k = 0.188784
         5         4         7         8     9        0.000000        0.163253         1    ;  uncertainty k = 0.897676
         5         4         7         8     9      180.000000       14.943860         2    ;  uncertainty k = 0.490293
         5         4         7         8     9        0.000000        1.970390         3    ;  uncertainty k = 0.460605
         5         4         7         8     9      180.000000        1.638543         4    ;  uncertainty k = 0.626869
         6         5         4         7     9        0.000000       -0.868960         1    ;  uncertainty k = 1.045764
         6         5         4         7     9      180.000000        5.280077         2    ;  uncertainty k = 0.291178
         6         5         4         7     9        0.000000        0.591447         3    ;  uncertainty k = 0.272888
         6         5         4         7     9      180.000000        0.496369         4    ;  uncertainty k = 0.069139
         7         4         3        35     9        0.000000        0.105450         1    ;  uncertainty k = 0.320254
         7         4         3        35     9      180.000000        8.551975         2    ;  uncertainty k = 0.459023
         7         4         3        35     9        0.000000        0.996515         3    ;  uncertainty k = 0.387645
         7         4         3        35     9      180.000000        1.568685         4    ;  uncertainty k = 0.135132
         7         4         5        36     9        0.000000        1.683023         1    ;  uncertainty k = 0.642406
         7         4         5        36     9      180.000000        3.097188         2    ;  uncertainty k = 0.145548
         7         4         5        36     9        0.000000        0.490829         3    ;  uncertainty k = 0.158691
         7         4         5        36     9      180.000000        0.188729         4    ;  uncertainty k = 0.068209
         7         4         5        37     9        0.000000        1.683023         1    ;  uncertainty k = 0.642406
         7         4         5        37     9      180.000000        3.097188         2    ;  uncertainty k = 0.145548
         7         4         5        37     9        0.000000        0.490829         3    ;  uncertainty k = 0.158691
         7         4         5        37     9      180.000000        0.188729         4    ;  uncertainty k = 0.068209
         7         8        10        11     9        0.000000        5.034826         1    ;  uncertainty k = 0.391988
         7         8        10        11     9      180.000000       11.924969         2    ;  uncertainty k = 0.152065
         7         8        10        11     9        0.000000        0.153896         3    ;  uncertainty k = 0.149728
         7         8        10        11     9      180.000000       -0.346085         4    ;  uncertainty k = 0.053127
         7         8        10        17     9        0.000000        5.034826         1    ;  uncertainty k = 0.391989
         7         8        10        17     9      180.000000       11.924970         2    ;  uncertainty k = 0.152066
         7         8        10        17     9        0.000000        0.153896         3    ;  uncertainty k = 0.149728
         7         8        10        17     9      180.000000       -0.346086         4    ;  uncertainty k = 0.053127
         8        10        11        12     9        0.000000       -5.408393         1    ;  uncertainty k = 1.756952
         8        10        11        12     9      180.000000        0.696385         2    ;  uncertainty k = 0.680899
         8        10        11        12     9        0.000000        0.810103         3    ;  uncertainty k = 0.291640
         8        10        11        12     9      180.000000        0.320447         4    ;  uncertainty k = 0.126677
         8        10        11        39     9        0.000000       -0.211797         1    ;  uncertainty k = 0.753060
         8        10        11        39     9      180.000000        1.021589         2    ;  uncertainty k = 0.395422
         8        10        11        39     9        0.000000        0.579643         3    ;  uncertainty k = 0.123994
         8        10        11        39     9      180.000000        0.384187         4    ;  uncertainty k = 0.103485
         8        10        11        40     9        0.000000       -0.211797         1    ;  uncertainty k = 0.753060
         8        10        11        40     9      180.000000        1.021589         2    ;  uncertainty k = 0.395422
         8        10        11        40     9        0.000000        0.579643         3    ;  uncertainty k = 0.123994
         8        10        11        40     9      180.000000        0.384187         4    ;  uncertainty k = 0.103485
         8        10        17        16     9        0.000000       -5.408394         1    ;  uncertainty k = 1.756951
         8        10        17        16     9      180.000000        0.696385         2    ;  uncertainty k = 0.680898
         8        10        17        16     9        0.000000        0.810103         3    ;  uncertainty k = 0.291639
         8        10        17        16     9      180.000000        0.320447         4    ;  uncertainty k = 0.126677
         8        10        17        47     9        0.000000       -0.211797         1    ;  uncertainty k = 0.753061
         8        10        17        47     9      180.000000        1.021589         2    ;  uncertainty k = 0.395423
         8        10        17        47     9        0.000000        0.579643         3    ;  uncertainty k = 0.123995
         8        10        17        47     9      180.000000        0.384187         4    ;  uncertainty k = 0.103486
         8        10        17        48     9        0.000000       -0.211797         1    ;  uncertainty k = 0.753061
         8        10        17        48     9      180.000000        1.021589         2    ;  uncertainty k = 0.395423
         8        10        17        48     9        0.000000        0.579643         3    ;  uncertainty k = 0.123995
         8        10        17        48     9      180.000000        0.384187         4    ;  uncertainty k = 0.103486
         9         2         1        32     9        0.000000        0.599494         1    ;  uncertainty k = 0.259710
         9         2         1        32     9      180.000000        3.661970         2    ;  uncertainty k = 0.058947
         9         2         1        32     9        0.000000        0.493882         3    ;  uncertainty k = 0.026822
         9         2         1        32     9      180.000000        0.277379         4    ;  uncertainty k = 0.045321
         9         2         1        33     9        0.000000        0.599494         1    ;  uncertainty k = 0.259710
         9         2         1        33     9      180.000000        3.661970         2    ;  uncertainty k = 0.058947
         9         2         1        33     9        0.000000        0.493882         3    ;  uncertainty k = 0.026822
         9         2         1        33     9      180.000000        0.277379         4    ;  uncertainty k = 0.045321
         9         2         1        34     9        0.000000        0.599494         1    ;  uncertainty k = 0.259710
         9         2         1        34     9      180.000000        3.661970         2    ;  uncertainty k = 0.058947
         9         2         1        34     9        0.000000        0.493882         3    ;  uncertainty k = 0.026822
         9         2         1        34     9      180.000000        0.277379         4    ;  uncertainty k = 0.045321
         9         2         3        35     9        0.000000        0.173655         1    ;  uncertainty k = 0.491198
         9         2         3        35     9      180.000000        8.305135         2    ;  uncertainty k = 0.361084
         9         2         3        35     9        0.000000        1.118134         3    ;  uncertainty k = 0.354953
         9         2         3        35     9      180.000000        1.625973         4    ;  uncertainty k = 0.075085
         9         8        10        11     9        0.000000        5.022688         1    ;  uncertainty k = 0.502240
         9         8        10        11     9      180.000000       11.764919         2    ;  uncertainty k = 0.127537
         9         8        10        11     9        0.000000        0.171591         3    ;  uncertainty k = 0.203016
         9         8        10        11     9      180.000000       -0.339110         4    ;  uncertainty k = 0.060547
         9         8        10        17     9        0.000000        5.022689         1    ;  uncertainty k = 0.502242
         9         8        10        17     9      180.000000       11.764918         2    ;  uncertainty k = 0.127537
         9         8        10        17     9        0.000000        0.171591         3    ;  uncertainty k = 0.203016
         9         8        10        17     9      180.000000       -0.339110         4    ;  uncertainty k = 0.060547
        10        11        12        13     9        0.000000       -1.986983         1    ;  uncertainty k = 1.131585
        10        11        12        13     9      180.000000        0.974418         2    ;  uncertainty k = 0.865255
        10        11        12        13     9        0.000000        1.658617         3    ;  uncertainty k = 0.387465
        10        11        12        13     9      180.000000       -0.170489         4    ;  uncertainty k = 0.236446
        10        11        12        16     9        0.000000       -0.248944         1    ;  uncertainty k = 1.669287
        10        11        12        16     9      180.000000        6.161827         2    ;  uncertainty k = 1.110762
        10        11        12        16     9        0.000000        0.670927         3    ;  uncertainty k = 0.347090
        10        11        12        16     9      180.000000       -1.488831         4    ;  uncertainty k = 0.506459
        10        11        12        41     9        0.000000        0.565924         1    ;  uncertainty k = 0.856652
        10        11        12        41     9      180.000000        1.324273         2    ;  uncertainty k = 0.513614
        10        11        12        41     9        0.000000        1.171168         3    ;  uncertainty k = 0.217599
        10        11        12        41     9      180.000000       -0.072433         4    ;  uncertainty k = 0.184790
        10        17        16        12     9        0.000000       -0.248943         1    ;  uncertainty k = 1.669287
        10        17        16        12     9      180.000000        6.161829         2    ;  uncertainty k = 1.110761
        10        17        16        12     9        0.000000        0.670927         3    ;  uncertainty k = 0.347090
        10        17        16        12     9      180.000000       -1.488831         4    ;  uncertainty k = 0.506459
        10        17        16        15     9        0.000000       -1.986983         1    ;  uncertainty k = 1.131581
        10        17        16        15     9      180.000000        0.974419         2    ;  uncertainty k = 0.865256
        10        17        16        15     9        0.000000        1.658617         3    ;  uncertainty k = 0.387464
        10        17        16        15     9      180.000000       -0.170489         4    ;  uncertainty k = 0.236446
        10        17        16        46     9        0.000000        0.565926         1    ;  uncertainty k = 0.856651
        10        17        16        46     9      180.000000        1.324272         2    ;  uncertainty k = 0.513614
        10        17        16        46     9        0.000000        1.171168         3    ;  uncertainty k = 0.217601
        10        17        16        46     9      180.000000       -0.072433         4    ;  uncertainty k = 0.184790
        11        10        17        16     9        0.000000        0.409930         1    ;  uncertainty k = 1.033845
        11        10        17        16     9      180.000000        1.423325         2    ;  uncertainty k = 1.181231
        11        10        17        16     9        0.000000        0.860226         3    ;  uncertainty k = 0.332034
        11        10        17        16     9      180.000000        0.010765         4    ;  uncertainty k = 0.168707
        11        10        17        47     9        0.000000       -2.106813         1    ;  uncertainty k = 0.722683
        11        10        17        47     9      180.000000        1.271153         2    ;  uncertainty k = 0.391419
        11        10        17        47     9        0.000000        1.144989         3    ;  uncertainty k = 0.081016
        11        10        17        47     9      180.000000        0.249969         4    ;  uncertainty k = 0.124009
        11        10        17        48     9        0.000000       -2.106813         1    ;  uncertainty k = 0.722683
        11        10        17        48     9      180.000000        1.271153         2    ;  uncertainty k = 0.391419
        11        10        17        48     9        0.000000        1.144989         3    ;  uncertainty k = 0.081016
        11        10        17        48     9      180.000000        0.249969         4    ;  uncertainty k = 0.124009
        11        12        13        14     9        0.000000       -2.607420         1    ;  uncertainty k = 0.995424
        11        12        13        14     9      180.000000        0.022076         2    ;  uncertainty k = 0.727033
        11        12        13        14     9        0.000000        1.612970         3    ;  uncertainty k = 0.235291
        11        12        13        14     9      180.000000       -0.185713         4    ;  uncertainty k = 0.112586
        11        12        13        42     9        0.000000       -0.498818         1    ;  uncertainty k = 0.107247
        11        12        13        42     9      180.000000       -0.409706         2    ;  uncertainty k = 0.197166
        11        12        13        42     9        0.000000        0.564543         3    ;  uncertainty k = 0.186998
        11        12        13        42     9      180.000000       -0.072177         4    ;  uncertainty k = 0.062323
        11        12        13        43     9        0.000000       -0.498818         1    ;  uncertainty k = 0.107247
        11        12        13        43     9      180.000000       -0.409706         2    ;  uncertainty k = 0.197166
        11        12        13        43     9        0.000000        0.564543         3    ;  uncertainty k = 0.186998
        11        12        13        43     9      180.000000       -0.072177         4    ;  uncertainty k = 0.062323
        11        12        16        15     9        0.000000       -3.847150         1    ;  uncertainty k = 0.842081
        11        12        16        15     9      180.000000        0.994502         2    ;  uncertainty k = 1.017626
        11        12        16        15     9        0.000000        1.189094         3    ;  uncertainty k = 0.581588
        11        12        16        15     9      180.000000       -0.416044         4    ;  uncertainty k = 0.334399
        11        12        16        17     9        0.000000       -3.896618         1    ;  uncertainty k = 1.087275
        11        12        16        17     9      180.000000        1.035025         2    ;  uncertainty k = 1.026286
        11        12        16        17     9        0.000000        1.207838         3    ;  uncertainty k = 0.671623
        11        12        16        17     9      180.000000       -0.436931         4    ;  uncertainty k = 0.343366
        11        12        16        46     9        0.000000       -1.223112         1    ;  uncertainty k = 0.611377
        11        12        16        46     9      180.000000        0.489634         2    ;  uncertainty k = 0.414978
        11        12        16        46     9        0.000000        0.997353         3    ;  uncertainty k = 0.241670
        11        12        16        46     9      180.000000        0.066778         4    ;  uncertainty k = 0.087125
        12        11        10        17     9        0.000000        0.409931         1    ;  uncertainty k = 1.033845
        12        11        10        17     9      180.000000        1.423324         2    ;  uncertainty k = 1.181232
        12        11        10        17     9        0.000000        0.860226         3    ;  uncertainty k = 0.332034
        12        11        10        17     9      180.000000        0.010765         4    ;  uncertainty k = 0.168708
        12        13        14        15     9        0.000000       -0.578347         1    ;  uncertainty k = 0.919747
        12        13        14        15     9      180.000000        0.242792         2    ;  uncertainty k = 0.701024
        12        13        14        15     9        0.000000        0.797027         3    ;  uncertainty k = 0.218418
        12        13        14        15     9      180.000000        0.154107         4    ;  uncertainty k = 0.246781
        12        13        14        18     9        0.000000       -0.209381         1    ;  uncertainty k = 0.966461
        12        13        14        18     9      180.000000       -0.541701         2    ;  uncertainty k = 0.373893
        12        13        14        18     9        0.000000        0.202801         3    ;  uncertainty k = 0.362931
        12        13        14        18     9      180.000000        0.702312         4    ;  uncertainty k = 0.132281
        12        16        15        14     9        0.000000       -0.736764         1    ;  uncertainty k = 0.633515
        12        16        15        14     9      180.000000        6.025412         2    ;  uncertainty k = 1.000861
        12        16        15        14     9        0.000000        0.435197         3    ;  uncertainty k = 0.297546
        12        16        15        14     9      180.000000       -1.170163         4    ;  uncertainty k = 0.204855
        12        16        15        44     9        0.000000        0.480411         1    ;  uncertainty k = 0.492791
        12        16        15        44     9      180.000000       -1.104496         2    ;  uncertainty k = 0.672329
        12        16        15        44     9        0.000000       -0.270073         3    ;  uncertainty k = 0.170671
        12        16        15        44     9      180.000000       -0.013160         4    ;  uncertainty k = 0.174221
        12        16        15        45     9        0.000000        0.480411         1    ;  uncertainty k = 0.492791
        12        16        15        45     9      180.000000       -1.104496         2    ;  uncertainty k = 0.672329
        12        16        15        45     9        0.000000       -0.270073         3    ;  uncertainty k = 0.170671
        12        16        15        45     9      180.000000       -0.013160         4    ;  uncertainty k = 0.174221
        12        16        17        47     9        0.000000        0.646621         1    ;  uncertainty k = 0.517783
        12        16        17        47     9      180.000000       -1.099688         2    ;  uncertainty k = 0.743824
        12        16        17        47     9        0.000000       -0.334779         3    ;  uncertainty k = 0.213643
        12        16        17        47     9      180.000000       -0.018734         4    ;  uncertainty k = 0.206092
        12        16        17        48     9        0.000000        0.646621         1    ;  uncertainty k = 0.517783
        12        16        17        48     9      180.000000       -1.099688         2    ;  uncertainty k = 0.743824
        12        16        17        48     9        0.000000       -0.334779         3    ;  uncertainty k = 0.213643
        12        16        17        48     9      180.000000       -0.018734         4    ;  uncertainty k = 0.206092
        13        12        11        39     9        0.000000       -0.670734         1    ;  uncertainty k = 0.233995
        13        12        11        39     9      180.000000       -0.386310         2    ;  uncertainty k = 0.258590
        13        12        11        39     9        0.000000        0.557637         3    ;  uncertainty k = 0.179621
        13        12        11        39     9      180.000000       -0.081826         4    ;  uncertainty k = 0.095492
        13        12        11        40     9        0.000000       -0.670734         1    ;  uncertainty k = 0.233995
        13        12        11        40     9      180.000000       -0.386310         2    ;  uncertainty k = 0.258590
        13        12        11        40     9        0.000000        0.557637         3    ;  uncertainty k = 0.179621
        13        12        11        40     9      180.000000       -0.081826         4    ;  uncertainty k = 0.095492
        13        12        16        15     9        0.000000       -3.717091         1    ;  uncertainty k = 0.646014
        13        12        16        15     9      180.000000        0.952705         2    ;  uncertainty k = 0.984304
        13        12        16        15     9        0.000000        1.178983         3    ;  uncertainty k = 0.499657
        13        12        16        15     9      180.000000       -0.410261         4    ;  uncertainty k = 0.338854
        13        12        16        17     9        0.000000       -3.847151         1    ;  uncertainty k = 0.842082
        13        12        16        17     9      180.000000        0.994504         2    ;  uncertainty k = 1.017625
        13        12        16        17     9        0.000000        1.189094         3    ;  uncertainty k = 0.581588
        13        12        16        17     9      180.000000       -0.416044         4    ;  uncertainty k = 0.334399
        13        12        16        46     9        0.000000       -1.291634         1    ;  uncertainty k = 0.560343
        13        12        16        46     9      180.000000        0.594321         2    ;  uncertainty k = 0.368266
        13        12        16        46     9        0.000000        1.030260         3    ;  uncertainty k = 0.246250
        13        12        16        46     9      180.000000        0.081405         4    ;  uncertainty k = 0.059901
        13        14        15        16     9        0.000000       -0.578347         1    ;  uncertainty k = 0.919747
        13        14        15        16     9      180.000000        0.242792         2    ;  uncertainty k = 0.701025
        13        14        15        16     9        0.000000        0.797027         3    ;  uncertainty k = 0.218419
        13        14        15        16     9      180.000000        0.154107         4    ;  uncertainty k = 0.246781
        13        14        15        44     9        0.000000       -1.810377         1    ;  uncertainty k = 0.576097
        13        14        15        44     9      180.000000        1.086382         2    ;  uncertainty k = 0.426528
        13        14        15        44     9        0.000000        1.250141         3    ;  uncertainty k = 0.136647
        13        14        15        44     9      180.000000        0.301768         4    ;  uncertainty k = 0.117464
        13        14        15        45     9        0.000000       -1.810377         1    ;  uncertainty k = 0.576097
        13        14        15        45     9      180.000000        1.086382         2    ;  uncertainty k = 0.426528
        13        14        15        45     9        0.000000        1.250141         3    ;  uncertainty k = 0.136647
        13        14        15        45     9      180.000000        0.301768         4    ;  uncertainty k = 0.117464
        13        14        18        19     9        0.000000        6.357003         1    ;  uncertainty k = 0.547606
        13        14        18        19     9      180.000000       16.962734         2    ;  uncertainty k = 0.212954
        13        14        18        19     9        0.000000        0.267170         3    ;  uncertainty k = 0.202910
        13        14        18        19     9      180.000000       -1.190649         4    ;  uncertainty k = 0.124612
        13        14        18        20     9        0.000000        3.407849         1    ;  uncertainty k = 1.339110
        13        14        18        20     9      180.000000        8.996075         2    ;  uncertainty k = 0.412445
        13        14        18        20     9        0.000000        1.595044         3    ;  uncertainty k = 0.230309
        13        14        18        20     9      180.000000       -0.020267         4    ;  uncertainty k = 0.371981
        14        13        12        16     9        0.000000       -0.736762         1    ;  uncertainty k = 0.633517
        14        13        12        16     9      180.000000        6.025413         2    ;  uncertainty k = 1.000861
        14        13        12        16     9        0.000000        0.435196         3    ;  uncertainty k = 0.297545
        14        13        12        16     9      180.000000       -1.170163         4    ;  uncertainty k = 0.204856
        14        13        12        41     9        0.000000        0.123161         1    ;  uncertainty k = 0.632773
        14        13        12        41     9      180.000000        0.836162         2    ;  uncertainty k = 0.434791
        14        13        12        41     9        0.000000        1.098159         3    ;  uncertainty k = 0.161086
        14        13        12        41     9      180.000000       -0.066245         4    ;  uncertainty k = 0.104331
        14        15        16        17     9        0.000000       -2.607419         1    ;  uncertainty k = 0.995424
        14        15        16        17     9      180.000000        0.022076         2    ;  uncertainty k = 0.727033
        14        15        16        17     9        0.000000        1.612970         3    ;  uncertainty k = 0.235290
        14        15        16        17     9      180.000000       -0.185713         4    ;  uncertainty k = 0.112586
        14        15        16        46     9        0.000000        0.123160         1    ;  uncertainty k = 0.632774
        14        15        16        46     9      180.000000        0.836161         2    ;  uncertainty k = 0.434791
        14        15        16        46     9        0.000000        1.098159         3    ;  uncertainty k = 0.161086
        14        15        16        46     9      180.000000       -0.066245         4    ;  uncertainty k = 0.104331
        14        18        20        21     9        0.000000        1.851367         1    ;  uncertainty k = 1.259576
        14        18        20        21     9      180.000000        5.752965         2    ;  uncertainty k = 0.175508
        14        18        20        21     9        0.000000        0.162215         3    ;  uncertainty k = 0.318225
        14        18        20        21     9      180.000000        0.484794         4    ;  uncertainty k = 0.155871
        14        18        20        26     9        0.000000        3.709916         1    ;  uncertainty k = 1.132205
        14        18        20        26     9      180.000000        5.907216         2    ;  uncertainty k = 0.295098
        14        18        20        26     9        0.000000        0.162296         3    ;  uncertainty k = 0.106376
        14        18        20        26     9      180.000000        0.490410         4    ;  uncertainty k = 0.140372
        15        14        13        42     9        0.000000       -1.810377         1    ;  uncertainty k = 0.576098
        15        14        13        42     9      180.000000        1.086382         2    ;  uncertainty k = 0.426526
        15        14        13        42     9        0.000000        1.250141         3    ;  uncertainty k = 0.136647
        15        14        13        42     9      180.000000        0.301768         4    ;  uncertainty k = 0.117464
        15        14        13        43     9        0.000000       -1.810377         1    ;  uncertainty k = 0.576098
        15        14        13        43     9      180.000000        1.086382         2    ;  uncertainty k = 0.426526
        15        14        13        43     9        0.000000        1.250141         3    ;  uncertainty k = 0.136647
        15        14        13        43     9      180.000000        0.301768         4    ;  uncertainty k = 0.117464
        15        14        18        19     9        0.000000        6.357001         1    ;  uncertainty k = 0.547606
        15        14        18        19     9      180.000000       16.962734         2    ;  uncertainty k = 0.212955
        15        14        18        19     9        0.000000        0.267170         3    ;  uncertainty k = 0.202910
        15        14        18        19     9      180.000000       -1.190649         4    ;  uncertainty k = 0.124611
        15        14        18        20     9        0.000000        3.407847         1    ;  uncertainty k = 1.339110
        15        14        18        20     9      180.000000        8.996074         2    ;  uncertainty k = 0.412445
        15        14        18        20     9        0.000000        1.595043         3    ;  uncertainty k = 0.230310
        15        14        18        20     9      180.000000       -0.020268         4    ;  uncertainty k = 0.371981
        15        16        12        41     9        0.000000       -1.291633         1    ;  uncertainty k = 0.560343
        15        16        12        41     9      180.000000        0.594321         2    ;  uncertainty k = 0.368268
        15        16        12        41     9        0.000000        1.030260         3    ;  uncertainty k = 0.246250
        15        16        12        41     9      180.000000        0.081405         4    ;  uncertainty k = 0.059900
        15        16        17        47     9        0.000000       -0.670733         1    ;  uncertainty k = 0.233996
        15        16        17        47     9      180.000000       -0.386309         2    ;  uncertainty k = 0.258591
        15        16        17        47     9        0.000000        0.557638         3    ;  uncertainty k = 0.179621
        15        16        17        47     9      180.000000       -0.081826         4    ;  uncertainty k = 0.095492
        15        16        17        48     9        0.000000       -0.670733         1    ;  uncertainty k = 0.233996
        15        16        17        48     9      180.000000       -0.386309         2    ;  uncertainty k = 0.258591
        15        16        17        48     9        0.000000        0.557638         3    ;  uncertainty k = 0.179621
        15        16        17        48     9      180.000000       -0.081826         4    ;  uncertainty k = 0.095492
        16        12        11        39     9        0.000000        0.646621         1    ;  uncertainty k = 0.517781
        16        12        11        39     9      180.000000       -1.099689         2    ;  uncertainty k = 0.743823
        16        12        11        39     9        0.000000       -0.334778         3    ;  uncertainty k = 0.213644
        16        12        11        39     9      180.000000       -0.018734         4    ;  uncertainty k = 0.206091
        16        12        11        40     9        0.000000        0.646621         1    ;  uncertainty k = 0.517781
        16        12        11        40     9      180.000000       -1.099689         2    ;  uncertainty k = 0.743823
        16        12        11        40     9        0.000000       -0.334778         3    ;  uncertainty k = 0.213644
        16        12        11        40     9      180.000000       -0.018734         4    ;  uncertainty k = 0.206091
        16        12        13        42     9        0.000000        0.480411         1    ;  uncertainty k = 0.492791
        16        12        13        42     9      180.000000       -1.104495         2    ;  uncertainty k = 0.672328
        16        12        13        42     9        0.000000       -0.270073         3    ;  uncertainty k = 0.170671
        16        12        13        42     9      180.000000       -0.013161         4    ;  uncertainty k = 0.174221
        16        12        13        43     9        0.000000        0.480411         1    ;  uncertainty k = 0.492791
        16        12        13        43     9      180.000000       -1.104495         2    ;  uncertainty k = 0.672328
        16        12        13        43     9        0.000000       -0.270073         3    ;  uncertainty k = 0.170671
        16        12        13        43     9      180.000000       -0.013161         4    ;  uncertainty k = 0.174221
        16        15        14        18     9        0.000000       -0.209380         1    ;  uncertainty k = 0.966459
        16        15        14        18     9      180.000000       -0.541701         2    ;  uncertainty k = 0.373894
        16        15        14        18     9        0.000000        0.202801         3    ;  uncertainty k = 0.362931
        16        15        14        18     9      180.000000        0.702311         4    ;  uncertainty k = 0.132281
        17        10        11        39     9        0.000000       -2.106814         1    ;  uncertainty k = 0.722683
        17        10        11        39     9      180.000000        1.271154         2    ;  uncertainty k = 0.391419
        17        10        11        39     9        0.000000        1.144989         3    ;  uncertainty k = 0.081016
        17        10        11        39     9      180.000000        0.249969         4    ;  uncertainty k = 0.124009
        17        10        11        40     9        0.000000       -2.106814         1    ;  uncertainty k = 0.722683
        17        10        11        40     9      180.000000        1.271154         2    ;  uncertainty k = 0.391419
        17        10        11        40     9        0.000000        1.144989         3    ;  uncertainty k = 0.081016
        17        10        11        40     9      180.000000        0.249969         4    ;  uncertainty k = 0.124009
        17        16        12        41     9        0.000000       -1.223110         1    ;  uncertainty k = 0.611378
        17        16        12        41     9      180.000000        0.489635         2    ;  uncertainty k = 0.414979
        17        16        12        41     9        0.000000        0.997353         3    ;  uncertainty k = 0.241669
        17        16        12        41     9      180.000000        0.066778         4    ;  uncertainty k = 0.087125
        17        16        15        44     9        0.000000       -0.498818         1    ;  uncertainty k = 0.107248
        17        16        15        44     9      180.000000       -0.409705         2    ;  uncertainty k = 0.197166
        17        16        15        44     9        0.000000        0.564544         3    ;  uncertainty k = 0.186998
        17        16        15        44     9      180.000000       -0.072177         4    ;  uncertainty k = 0.062323
        17        16        15        45     9        0.000000       -0.498818         1    ;  uncertainty k = 0.107248
        17        16        15        45     9      180.000000       -0.409705         2    ;  uncertainty k = 0.197166
        17        16        15        45     9        0.000000        0.564544         3    ;  uncertainty k = 0.186998
        17        16        15        45     9      180.000000       -0.072177         4    ;  uncertainty k = 0.062323
        18        14        13        42     9        0.000000        1.416105         1    ;  uncertainty k = 0.719804
        18        14        13        42     9      180.000000        0.065610         2    ;  uncertainty k = 0.093474
        18        14        13        42     9        0.000000        0.002232         3    ;  uncertainty k = 0.089343
        18        14        13        42     9      180.000000        0.277826         4    ;  uncertainty k = 0.071341
        18        14        13        43     9        0.000000        1.416105         1    ;  uncertainty k = 0.719804
        18        14        13        43     9      180.000000        0.065610         2    ;  uncertainty k = 0.093474
        18        14        13        43     9        0.000000        0.002232         3    ;  uncertainty k = 0.089343
        18        14        13        43     9      180.000000        0.277826         4    ;  uncertainty k = 0.071341
        18        14        15        44     9        0.000000        1.416105         1    ;  uncertainty k = 0.719804
        18        14        15        44     9      180.000000        0.065610         2    ;  uncertainty k = 0.093472
        18        14        15        44     9        0.000000        0.002232         3    ;  uncertainty k = 0.089343
        18        14        15        44     9      180.000000        0.277826         4    ;  uncertainty k = 0.071341
        18        14        15        45     9        0.000000        1.416105         1    ;  uncertainty k = 0.719804
        18        14        15        45     9      180.000000        0.065610         2    ;  uncertainty k = 0.093472
        18        14        15        45     9        0.000000        0.002232         3    ;  uncertainty k = 0.089343
        18        14        15        45     9      180.000000        0.277826         4    ;  uncertainty k = 0.071341
        18        20        21        22     9        0.000000        0.086680         1    ;  uncertainty k = 0.322670
        18        20        21        22     9      180.000000       11.407953         2    ;  uncertainty k = 0.599565
        18        20        21        22     9        0.000000        1.385161         3    ;  uncertainty k = 0.187005
        18        20        21        22     9      180.000000        1.483635         4    ;  uncertainty k = 0.318096
        18        20        21        23     9        0.000000        0.114462         1    ;  uncertainty k = 0.659063
        18        20        21        23     9      180.000000        6.312817         2    ;  uncertainty k = 0.577136
        18        20        21        23     9        0.000000        1.356865         3    ;  uncertainty k = 0.282275
        18        20        21        23     9      180.000000        1.940646         4    ;  uncertainty k = 0.196893
        18        20        26        25     9        0.000000        0.266109         1    ;  uncertainty k = 0.262230
        18        20        26        25     9      180.000000        6.791976         2    ;  uncertainty k = 0.556220
        18        20        26        25     9        0.000000        1.305735         3    ;  uncertainty k = 0.332052
        18        20        26        25     9      180.000000        1.750369         4    ;  uncertainty k = 0.249436
        18        20        26        27     9        0.000000       -0.079088         1    ;  uncertainty k = 0.890587
        18        20        26        27     9      180.000000       10.037557         2    ;  uncertainty k = 0.622174
        18        20        26        27     9        0.000000        1.315712         3    ;  uncertainty k = 0.504290
        18        20        26        27     9      180.000000        1.286094         4    ;  uncertainty k = 0.361801
        19        18        20        21     9        0.000000       -1.928785         1    ;  uncertainty k = 0.969843
        19        18        20        21     9      180.000000        5.038791         2    ;  uncertainty k = 0.443316
        19        18        20        21     9        0.000000        0.869540         3    ;  uncertainty k = 0.424298
        19        18        20        21     9      180.000000        0.459984         4    ;  uncertainty k = 0.229979
        19        18        20        26     9        0.000000       -3.997731         1    ;  uncertainty k = 0.906468
        19        18        20        26     9      180.000000        5.945518         2    ;  uncertainty k = 0.542758
        19        18        20        26     9        0.000000        0.551178         3    ;  uncertainty k = 0.549645
        19        18        20        26     9      180.000000        0.513462         4    ;  uncertainty k = 0.329406
        20        21        23        24     9        0.000000        0.011529         1    ;  uncertainty k = 0.194930
        20        21        23        24     9      180.000000        8.787238         2    ;  uncertainty k = 0.361867
        20        21        23        24     9        0.000000        0.106727         3    ;  uncertainty k = 0.344316
        20        21        23        24     9      180.000000        1.205900         4    ;  uncertainty k = 0.276948
        20        21        23        49     9        0.000000       -0.168918         1    ;  uncertainty k = 0.390695
        20        21        23        49     9      180.000000        5.695522         2    ;  uncertainty k = 0.674905
        20        21        23        49     9        0.000000        1.129293         3    ;  uncertainty k = 0.356557
        20        21        23        49     9      180.000000        1.505167         4    ;  uncertainty k = 0.216214
        20        26        25        24     9        0.000000       -0.242508         1    ;  uncertainty k = 0.315737
        20        26        25        24     9      180.000000        9.681246         2    ;  uncertainty k = 0.496020
        20        26        25        24     9        0.000000        0.240132         3    ;  uncertainty k = 0.161668
        20        26        25        24     9      180.000000        1.271249         4    ;  uncertainty k = 0.330409
        20        26        25        51     9        0.000000       -0.007148         1    ;  uncertainty k = 0.345797
        20        26        25        51     9      180.000000        6.393420         2    ;  uncertainty k = 0.363299
        20        26        25        51     9        0.000000        1.235598         3    ;  uncertainty k = 0.195907
        20        26        25        51     9      180.000000        1.608512         4    ;  uncertainty k = 0.191460
        20        26        27        28     9        0.000000       -1.535069         1    ;  uncertainty k = 0.563416
        20        26        27        28     9      180.000000        4.499715         2    ;  uncertainty k = 0.535585
        20        26        27        28     9        0.000000        0.637687         3    ;  uncertainty k = 0.351002
        20        26        27        28     9      180.000000       -0.090463         4    ;  uncertainty k = 0.183190
        20        26        27        31     9        0.000000       -1.535069         1    ;  uncertainty k = 0.563416
        20        26        27        31     9      180.000000        4.499715         2    ;  uncertainty k = 0.535585
        20        26        27        31     9        0.000000        0.637687         3    ;  uncertainty k = 0.351002
        20        26        27        31     9      180.000000       -0.090463         4    ;  uncertainty k = 0.183190
        21        20        26        25     9        0.000000       -0.242351         1    ;  uncertainty k = 0.420152
        21        20        26        25     9      180.000000        6.983637         2    ;  uncertainty k = 0.869640
        21        20        26        25     9        0.000000        0.325219         3    ;  uncertainty k = 0.349953
        21        20        26        25     9      180.000000        1.307286         4    ;  uncertainty k = 0.335099
        21        20        26        27     9        0.000000        0.337460         1    ;  uncertainty k = 0.391009
        21        20        26        27     9      180.000000       10.376661         2    ;  uncertainty k = 0.372710
        21        20        26        27     9        0.000000        1.330823         3    ;  uncertainty k = 0.417773
        21        20        26        27     9      180.000000        1.431413         4    ;  uncertainty k = 0.199546
        21        23        24        25     9        0.000000       -0.033963         1    ;  uncertainty k = 0.110226
        21        23        24        25     9      180.000000       13.984025         2    ;  uncertainty k = 0.340845
        21        23        24        25     9        0.000000       -1.042557         3    ;  uncertainty k = 0.357764
        21        23        24        25     9      180.000000        0.802609         4    ;  uncertainty k = 0.247483
        21        23        24        50     9        0.000000       -0.104379         1    ;  uncertainty k = 0.141872
        21        23        24        50     9      180.000000        7.264410         2    ;  uncertainty k = 0.340044
        21        23        24        50     9        0.000000        1.287730         3    ;  uncertainty k = 0.202339
        21        23        24        50     9      180.000000        1.653500         4    ;  uncertainty k = 0.150967
        22        21        20        26     9        0.000000        0.033254         1    ;  uncertainty k = 0.304862
        22        21        20        26     9      180.000000       11.302610         2    ;  uncertainty k = 0.302059
        22        21        20        26     9        0.000000        1.679241         3    ;  uncertainty k = 0.164696
        22        21        20        26     9      180.000000        1.555515         4    ;  uncertainty k = 0.157671
        22        21        23        24     9        0.000000       -0.080232         1    ;  uncertainty k = 0.461474
        22        21        23        24     9      180.000000       13.203682         2    ;  uncertainty k = 0.340325
        22        21        23        24     9        0.000000        1.295972         3    ;  uncertainty k = 0.165134
        22        21        23        24     9      180.000000        1.523069         4    ;  uncertainty k = 0.233966
        22        21        23        49     9        0.000000       -0.128834         1    ;  uncertainty k = 0.456012
        22        21        23        49     9      180.000000        9.556552         2    ;  uncertainty k = 0.491147
        22        21        23        49     9        0.000000        0.767278         3    ;  uncertainty k = 0.273034
        22        21        23        49     9      180.000000        1.024642         4    ;  uncertainty k = 0.200947
        23        21        20        26     9        0.000000       -0.325541         1    ;  uncertainty k = 0.355388
        23        21        20        26     9      180.000000        6.052960         2    ;  uncertainty k = 0.864094
        23        21        20        26     9        0.000000        0.684668         3    ;  uncertainty k = 0.181781
        23        21        20        26     9      180.000000        1.492448         4    ;  uncertainty k = 0.353261
        23        24        25        26     9        0.000000       -0.096416         1    ;  uncertainty k = 0.180639
        23        24        25        26     9      180.000000       13.532949         2    ;  uncertainty k = 0.268821
        23        24        25        26     9        0.000000       -0.934273         3    ;  uncertainty k = 0.410646
        23        24        25        26     9      180.000000        0.824229         4    ;  uncertainty k = 0.239882
        23        24        25        51     9        0.000000        0.090918         1    ;  uncertainty k = 0.138952
        23        24        25        51     9      180.000000        7.803070         2    ;  uncertainty k = 0.340548
        23        24        25        51     9        0.000000        1.340932         3    ;  uncertainty k = 0.288750
        23        24        25        51     9      180.000000        1.895629         4    ;  uncertainty k = 0.190611
        24        25        26        27     9        0.000000        0.460449         1    ;  uncertainty k = 0.322983
        24        25        26        27     9      180.000000       11.387678         2    ;  uncertainty k = 0.346993
        24        25        26        27     9        0.000000        0.982542         3    ;  uncertainty k = 0.164036
        24        25        26        27     9      180.000000        1.624026         4    ;  uncertainty k = 0.138288
        25        24        23        49     9        0.000000        0.058868         1    ;  uncertainty k = 0.276257
        25        24        23        49     9      180.000000        7.716329         2    ;  uncertainty k = 0.326791
        25        24        23        49     9        0.000000        1.437490         3    ;  uncertainty k = 0.272563
        25        24        23        49     9      180.000000        1.759669         4    ;  uncertainty k = 0.126329
        25        26        27        28     9        0.000000        2.394481         1    ;  uncertainty k = 0.740964
        25        26        27        28     9      180.000000        4.329586         2    ;  uncertainty k = 0.263950
        25        26        27        28     9        0.000000        0.391713         3    ;  uncertainty k = 0.190597
        25        26        27        28     9      180.000000        0.083730         4    ;  uncertainty k = 0.150415
        25        26        27        31     9        0.000000        2.394481         1    ;  uncertainty k = 0.740964
        25        26        27        31     9      180.000000        4.329586         2    ;  uncertainty k = 0.263950
        25        26        27        31     9        0.000000        0.391713         3    ;  uncertainty k = 0.190597
        25        26        27        31     9      180.000000        0.083730         4    ;  uncertainty k = 0.150415
        26        25        24        50     9        0.000000       -0.010723         1    ;  uncertainty k = 0.237400
        26        25        24        50     9      180.000000        7.958978         2    ;  uncertainty k = 0.442749
        26        25        24        50     9        0.000000        1.209101         3    ;  uncertainty k = 0.164443
        26        25        24        50     9      180.000000        1.723739         4    ;  uncertainty k = 0.144208
        26        27        28        29     9        0.000000        0.797559         1    ;  uncertainty k = 2.309877
        26        27        28        29     9      180.000000       14.114446         2    ;  uncertainty k = 0.418682
        26        27        28        29     9        0.000000        1.402880         3    ;  uncertainty k = 0.442527
        26        27        28        29     9      180.000000        0.112613         4    ;  uncertainty k = 0.206946
        26        27        31        30     9        0.000000        0.797559         1    ;  uncertainty k = 2.309877
        26        27        31        30     9      180.000000       14.114446         2    ;  uncertainty k = 0.418682
        26        27        31        30     9        0.000000        1.402880         3    ;  uncertainty k = 0.442527
        26        27        31        30     9      180.000000        0.112613         4    ;  uncertainty k = 0.206946
        27        26        25        51     9        0.000000        0.135211         1    ;  uncertainty k = 0.398577
        27        26        25        51     9      180.000000        8.519176         2    ;  uncertainty k = 0.273746
        27        26        25        51     9        0.000000        0.803950         3    ;  uncertainty k = 0.224881
        27        26        25        51     9      180.000000        1.348903         4    ;  uncertainty k = 0.152778
        27        28        29        30     9        0.000000        0.015899         1    ;  uncertainty k = 0.518603
        27        28        29        30     9      180.000000       24.370143         2    ;  uncertainty k = 0.366584
        27        28        29        30     9        0.000000       -9.715998         3    ;  uncertainty k = 1.915613
        27        28        29        30     9      180.000000        2.426696         4    ;  uncertainty k = 0.655510
        27        28        29        52     9        0.000000        0.232294         1    ;  uncertainty k = 0.741580
        27        28        29        52     9      180.000000       22.028694         2    ;  uncertainty k = 0.487024
        27        28        29        52     9        0.000000        1.455895         3    ;  uncertainty k = 0.397708
        27        28        29        52     9      180.000000        1.220382         4    ;  uncertainty k = 0.604170
        27        31        30        29     9        0.000000        0.015899         1    ;  uncertainty k = 0.518603
        27        31        30        29     9      180.000000       24.370143         2    ;  uncertainty k = 0.366584
        27        31        30        29     9        0.000000       -9.715998         3    ;  uncertainty k = 1.915613
        27        31        30        29     9      180.000000        2.426696         4    ;  uncertainty k = 0.655510
        27        31        30        53     9        0.000000        0.232294         1    ;  uncertainty k = 0.741580
        27        31        30        53     9      180.000000       22.028694         2    ;  uncertainty k = 0.487024
        27        31        30        53     9        0.000000        1.455895         3    ;  uncertainty k = 0.397708
        27        31        30        53     9      180.000000        1.220382         4    ;  uncertainty k = 0.604170
        28        27        31        30     9        0.000000       -0.822391         1    ;  uncertainty k = 0.769863
        28        27        31        30     9      180.000000       22.038729         2    ;  uncertainty k = 0.271382
        28        27        31        30     9        0.000000       -8.305140         3    ;  uncertainty k = 1.269833
        28        27        31        30     9      180.000000        1.298759         4    ;  uncertainty k = 0.596553
        28        29        30        31     9        0.000000       -0.480158         1    ;  uncertainty k = 0.926462
        28        29        30        31     9      180.000000       16.735216         2    ;  uncertainty k = 1.309662
        28        29        30        31     9        0.000000      -12.155219         3    ;  uncertainty k = 1.939945
        28        29        30        31     9      180.000000        1.991293         4    ;  uncertainty k = 0.750423
        28        29        30        53     9        0.000000        0.154897         1    ;  uncertainty k = 0.970262
        28        29        30        53     9      180.000000       11.842300         2    ;  uncertainty k = 0.614370
        28        29        30        53     9        0.000000        0.922189         3    ;  uncertainty k = 0.757887
        28        29        30        53     9      180.000000        0.630945         4    ;  uncertainty k = 0.172002
        29        28        27        31     9        0.000000       -0.822391         1    ;  uncertainty k = 0.769863
        29        28        27        31     9      180.000000       22.038729         2    ;  uncertainty k = 0.271382
        29        28        27        31     9        0.000000       -8.305140         3    ;  uncertainty k = 1.269833
        29        28        27        31     9      180.000000        1.298759         4    ;  uncertainty k = 0.596553
        31        30        29        52     9        0.000000        0.154897         1    ;  uncertainty k = 0.970262
        31        30        29        52     9      180.000000       11.842300         2    ;  uncertainty k = 0.614370
        31        30        29        52     9        0.000000        0.922189         3    ;  uncertainty k = 0.757887
        31        30        29        52     9      180.000000        0.630945         4    ;  uncertainty k = 0.172002
        36         5         6        38     9        0.000000       10.595056         1    ;  uncertainty k = 0.165629
        36         5         6        38     9      180.000000       -1.812338         2    ;  uncertainty k = 0.320082
        36         5         6        38     9        0.000000        0.717231         3    ;  uncertainty k = 0.171059
        36         5         6        38     9      180.000000        0.024076         4    ;  uncertainty k = 0.054974
        37         5         6        38     9        0.000000       10.595056         1    ;  uncertainty k = 0.165629
        37         5         6        38     9      180.000000       -1.812338         2    ;  uncertainty k = 0.320082
        37         5         6        38     9        0.000000        0.717231         3    ;  uncertainty k = 0.171059
        37         5         6        38     9      180.000000        0.024076         4    ;  uncertainty k = 0.054974
        39        11        12        41     9        0.000000        0.359872         1    ;  uncertainty k = 0.316166
        39        11        12        41     9      180.000000       -0.360044         2    ;  uncertainty k = 0.197279
        39        11        12        41     9        0.000000        0.364903         3    ;  uncertainty k = 0.128583
        39        11        12        41     9      180.000000       -0.036803         4    ;  uncertainty k = 0.081429
        40        11        12        41     9        0.000000        0.359872         1    ;  uncertainty k = 0.316166
        40        11        12        41     9      180.000000       -0.360044         2    ;  uncertainty k = 0.197279
        40        11        12        41     9        0.000000        0.364903         3    ;  uncertainty k = 0.128583
        40        11        12        41     9      180.000000       -0.036803         4    ;  uncertainty k = 0.081429
        41        12        13        42     9        0.000000        0.423998         1    ;  uncertainty k = 0.297943
        41        12        13        42     9      180.000000       -0.322771         2    ;  uncertainty k = 0.253711
        41        12        13        42     9        0.000000        0.343158         3    ;  uncertainty k = 0.128710
        41        12        13        42     9      180.000000       -0.041305         4    ;  uncertainty k = 0.061986
        41        12        13        43     9        0.000000        0.423998         1    ;  uncertainty k = 0.297943
        41        12        13        43     9      180.000000       -0.322771         2    ;  uncertainty k = 0.253711
        41        12        13        43     9        0.000000        0.343158         3    ;  uncertainty k = 0.128710
        41        12        13        43     9      180.000000       -0.041305         4    ;  uncertainty k = 0.061986
        41        12        16        46     9        0.000000        3.534566         1    ;  uncertainty k = 1.183407
        41        12        16        46     9      180.000000       -0.219654         2    ;  uncertainty k = 0.641097
        41        12        16        46     9        0.000000        0.578188         3    ;  uncertainty k = 0.579178
        41        12        16        46     9      180.000000        0.212498         4    ;  uncertainty k = 0.291708
        44        15        16        46     9        0.000000        0.424000         1    ;  uncertainty k = 0.297943
        44        15        16        46     9      180.000000       -0.322771         2    ;  uncertainty k = 0.253710
        44        15        16        46     9        0.000000        0.343158         3    ;  uncertainty k = 0.128710
        44        15        16        46     9      180.000000       -0.041305         4    ;  uncertainty k = 0.061986
        45        15        16        46     9        0.000000        0.424000         1    ;  uncertainty k = 0.297943
        45        15        16        46     9      180.000000       -0.322771         2    ;  uncertainty k = 0.253710
        45        15        16        46     9        0.000000        0.343158         3    ;  uncertainty k = 0.128710
        45        15        16        46     9      180.000000       -0.041305         4    ;  uncertainty k = 0.061986
        46        16        17        47     9        0.000000        0.359873         1    ;  uncertainty k = 0.316165
        46        16        17        47     9      180.000000       -0.360044         2    ;  uncertainty k = 0.197281
        46        16        17        47     9        0.000000        0.364903         3    ;  uncertainty k = 0.128582
        46        16        17        47     9      180.000000       -0.036803         4    ;  uncertainty k = 0.081429
        46        16        17        48     9        0.000000        0.359873         1    ;  uncertainty k = 0.316165
        46        16        17        48     9      180.000000       -0.360044         2    ;  uncertainty k = 0.197281
        46        16        17        48     9        0.000000        0.364903         3    ;  uncertainty k = 0.128582
        46        16        17        48     9      180.000000       -0.036803         4    ;  uncertainty k = 0.081429
        49        23        24        50     9        0.000000       -0.020811         1    ;  uncertainty k = 0.168739
        49        23        24        50     9      180.000000        7.628630         2    ;  uncertainty k = 0.494067
        49        23        24        50     9        0.000000       -0.419007         3    ;  uncertainty k = 0.338955
        49        23        24        50     9      180.000000        0.009969         4    ;  uncertainty k = 0.203192
        50        24        25        51     9        0.000000        0.041837         1    ;  uncertainty k = 0.123335
        50        24        25        51     9      180.000000        7.941959         2    ;  uncertainty k = 0.372063
        50        24        25        51     9        0.000000       -0.460822         3    ;  uncertainty k = 0.327229
        50        24        25        51     9      180.000000        0.152785         4    ;  uncertainty k = 0.182743
        52        29        30        53     9        0.000000       -0.942648         1    ;  uncertainty k = 1.117582
        52        29        30        53     9      180.000000        4.272735         2    ;  uncertainty k = 0.760818
        52        29        30        53     9        0.000000        1.314863         3    ;  uncertainty k = 0.353594
        52        29        30        53     9      180.000000        0.150448         4    ;  uncertainty k = 0.159865

[ dihedrals ] ; impropers
;       ai        aj        ak        al funct           phase               k        pn
         2         1         3         9     4      180.000000       31.576567         2    ;  uncertainty k = 0.066125
         2         3         9         1     4      180.000000       31.576567         2    ;  uncertainty k = 0.066125
         2         9         1         3     4      180.000000       31.576567         2    ;  uncertainty k = 0.066125
         3         2         4        35     4      180.000000        1.439426         2    ;  uncertainty k = 0.309275
         3         4        35         2     4      180.000000        1.439426         2    ;  uncertainty k = 0.309275
         3        35         2         4     4      180.000000        1.439426         2    ;  uncertainty k = 0.309275
         4         3         5         7     4      180.000000       27.852011         2    ;  uncertainty k = 0.034407
         4         5         7         3     4      180.000000       27.852011         2    ;  uncertainty k = 0.034407
         4         7         3         5     4      180.000000       27.852011         2    ;  uncertainty k = 0.034407
         8         7         9        10     4      180.000000       42.448337         2    ;  uncertainty k = 0.066649
         8         9        10         7     4      180.000000       42.448337         2    ;  uncertainty k = 0.066649
         8        10         7         9     4      180.000000       42.448337         2    ;  uncertainty k = 0.066649
        10         8        11        17     4      180.000000        0.095267         2    ;  uncertainty k = 0.166019
        10        11        17         8     4      180.000000        0.095267         2    ;  uncertainty k = 0.166019
        10        17         8        11     4      180.000000        0.095267         2    ;  uncertainty k = 0.166019
        18        14        19        20     4      180.000000       52.212280         2    ;  uncertainty k = 0.071533
        18        19        20        14     4      180.000000       52.212280         2    ;  uncertainty k = 0.071533
        18        20        14        19     4      180.000000       52.212280         2    ;  uncertainty k = 0.071533
        20        18        21        26     4      180.000000        9.307072         2    ;  uncertainty k = 0.434424
        20        21        26        18     4      180.000000        9.307072         2    ;  uncertainty k = 0.434424
        20        26        18        21     4      180.000000        9.307072         2    ;  uncertainty k = 0.434424
        21        20        22        23     4      180.000000       15.115266         2    ;  uncertainty k = 0.210077
        21        22        23        20     4      180.000000       15.115266         2    ;  uncertainty k = 0.210077
        21        23        20        22     4      180.000000       15.115266         2    ;  uncertainty k = 0.210077
        23        21        24        49     4      180.000000        2.461870         2    ;  uncertainty k = 0.103991
        23        24        49        21     4      180.000000        2.461870         2    ;  uncertainty k = 0.103991
        23        49        21        24     4      180.000000        2.461870         2    ;  uncertainty k = 0.103991
        24        23        25        50     4      180.000000        4.937369         2    ;  uncertainty k = 0.112088
        24        25        50        23     4      180.000000        4.937369         2    ;  uncertainty k = 0.112088
        24        50        23        25     4      180.000000        4.937369         2    ;  uncertainty k = 0.112088
        25        24        26        51     4      180.000000        2.847064         2    ;  uncertainty k = 0.193191
        25        26        51        24     4      180.000000        2.847064         2    ;  uncertainty k = 0.193191
        25        51        24        26     4      180.000000        2.847064         2    ;  uncertainty k = 0.193191
        26        20        25        27     4      180.000000       12.584197         2    ;  uncertainty k = 0.129690
        26        25        27        20     4      180.000000       12.584197         2    ;  uncertainty k = 0.129690
        26        27        20        25     4      180.000000       12.584197         2    ;  uncertainty k = 0.129690
        29        28        30        52     4      180.000000        0.414726         2    ;  uncertainty k = 0.408832
        29        30        52        28     4      180.000000        0.414726         2    ;  uncertainty k = 0.408832
        29        52        28        30     4      180.000000        0.414726         2    ;  uncertainty k = 0.408832
        30        29        31        53     4      180.000000        0.414726         2    ;  uncertainty k = 0.408832
        30        31        53        29     4      180.000000        0.414726         2    ;  uncertainty k = 0.408832
        30        53        29        31     4      180.000000        0.414726         2    ;  uncertainty k = 0.408832

[ pairs ]
;       ai        aj funct
         1         4     1
         1         8     1
         1        35     1
         2         5     1
         2         7     1
         2        10     1
         3         6     1
         3         8     1
         3        32     1
         3        33     1
         3        34     1
         3        36     1
         3        37     1
         4         9     1
         4        10     1
         4        38     1
         5         8     1
         5        35     1
         6         7     1
         7        11     1
         7        17     1
         7        35     1
         7        36     1
         7        37     1
         8        12     1
         8        16     1
         8        39     1
         8        40     1
         8        47     1
         8        48     1
         9        11     1
         9        17     1
         9        32     1
         9        33     1
         9        34     1
         9        35     1
        10        13     1
        10        15     1
        10        41     1
        10        46     1
        11        14     1
        11        15     1
        11        42     1
        11        43     1
        11        46     1
        11        47     1
        11        48     1
        12        18     1
        12        44     1
        12        45     1
        12        47     1
        12        48     1
        13        17     1
        13        19     1
        13        20     1
        13        39     1
        13        40     1
        13        44     1
        13        45     1
        13        46     1
        14        17     1
        14        21     1
        14        26     1
        14        41     1
        14        46     1
        15        19     1
        15        20     1
        15        41     1
        15        42     1
        15        43     1
        15        47     1
        15        48     1
        16        18     1
        16        39     1
        16        40     1
        16        42     1
        16        43     1
        17        39     1
        17        40     1
        17        41     1
        17        44     1
        17        45     1
        18        22     1
        18        23     1
        18        25     1
        18        27     1
        18        42     1
        18        43     1
        18        44     1
        18        45     1
        19        21     1
        19        26     1
        20        24     1
        20        28     1
        20        31     1
        20        49     1
        20        51     1
        21        25     1
        21        27     1
        21        50     1
        22        24     1
        22        26     1
        22        49     1
        23        26     1
        23        51     1
        24        27     1
        25        28     1
        25        31     1
        25        49     1
        26        29     1
        26        30     1
        26        50     1
        27        51     1
        27        52     1
        27        53     1
        28        53     1
        31        52     1
        36        38     1
        37        38     1
        39        41     1
        40        41     1
        41        42     1
        41        43     1
        41        46     1
        44        46     1
        45        46     1
        46        47     1
        46        48     1
        49        50     1
        50        51     1
        52        53     1
