; ITP file created by ByteFF-joint-25, 2025-07-14 11:28:29.760641

[ atomtypes ]
;name           bonded.type        at.num        mass        charge   ptype           sigma         epsilon
 c0bf                                   6      0.0000       0.00000       A     3.39773e-01     4.50930e-01    ;  uncertainty sigma = 0.000007, epsilon = 0.000592
 c1bf                                   6      0.0000       0.00000       A     3.31511e-01     4.13145e-01    ;  uncertainty sigma = 0.000011, epsilon = 0.000579
 c2bf                                   6      0.0000       0.00000       A     3.31523e-01     4.13243e-01    ;  uncertainty sigma = 0.000013, epsilon = 0.000737
 c3bf                                   6      0.0000       0.00000       A     3.31511e-01     4.13145e-01    ;  uncertainty sigma = 0.000011, epsilon = 0.000579
 c4bf                                   6      0.0000       0.00000       A     3.39773e-01     4.50930e-01    ;  uncertainty sigma = 0.000007, epsilon = 0.000592
 n5bf                                   7      0.0000       0.00000       A     3.38407e-01     3.93685e-01    ;  uncertainty sigma = 0.000013, epsilon = 0.000791
 c6bf                                   6      0.0000       0.00000       A     3.31545e-01     4.13196e-01    ;  uncertainty sigma = 0.000018, epsilon = 0.000667
 n7bf                                   7      0.0000       0.00000       A     3.38407e-01     3.93685e-01    ;  uncertainty sigma = 0.000013, epsilon = 0.000791
 n8bf                                   7      0.0000       0.00000       A     3.18950e-01     8.99076e-01    ;  uncertainty sigma = 0.000052, epsilon = 0.003577
 c9bf                                   6      0.0000       0.00000       A     3.39774e-01     4.50953e-01    ;  uncertainty sigma = 0.000012, epsilon = 0.001229
 c10bf                                  6      0.0000       0.00000       A     3.39776e-01     4.51373e-01    ;  uncertainty sigma = 0.000009, epsilon = 0.000969
 c11bf                                  6      0.0000       0.00000       A     3.39784e-01     4.51219e-01    ;  uncertainty sigma = 0.000006, epsilon = 0.000696
 n12bf                                  7      0.0000       0.00000       A     3.18079e-01     6.84112e-01    ;  uncertainty sigma = 0.000014, epsilon = 0.001025
 c13bf                                  6      0.0000       0.00000       A     3.39784e-01     4.51219e-01    ;  uncertainty sigma = 0.000006, epsilon = 0.000696
 c14bf                                  6      0.0000       0.00000       A     3.39776e-01     4.51373e-01    ;  uncertainty sigma = 0.000009, epsilon = 0.000969
 c15bf                                  6      0.0000       0.00000       A     3.39774e-01     4.50953e-01    ;  uncertainty sigma = 0.000012, epsilon = 0.001229
 c16bf                                  6      0.0000       0.00000       A     3.31530e-01     4.13167e-01    ;  uncertainty sigma = 0.000023, epsilon = 0.001745
 o17bf                                  8      0.0000       0.00000       A     3.04853e-01     6.12088e-01    ;  uncertainty sigma = 0.000030, epsilon = 0.001067
 c18bf                                  6      0.0000       0.00000       A     3.31539e-01     4.12564e-01    ;  uncertainty sigma = 0.000020, epsilon = 0.001282
 c19bf                                  6      0.0000       0.00000       A     3.31520e-01     4.13399e-01    ;  uncertainty sigma = 0.000011, epsilon = 0.000519
 c20bf                                  6      0.0000       0.00000       A     3.31517e-01     4.13329e-01    ;  uncertainty sigma = 0.000004, epsilon = 0.000638
 c21bf                                  6      0.0000       0.00000       A     3.31516e-01     4.13410e-01    ;  uncertainty sigma = 0.000009, epsilon = 0.000520
 f22bf                                  9      0.0000       0.00000       A     3.03430e-01     3.47913e-01    ;  uncertainty sigma = 0.000009, epsilon = 0.000891
 c23bf                                  6      0.0000       0.00000       A     3.31510e-01     4.13409e-01    ;  uncertainty sigma = 0.000009, epsilon = 0.001052
 c24bf                                  6      0.0000       0.00000       A     3.31554e-01     4.13495e-01    ;  uncertainty sigma = 0.000016, epsilon = 0.001737
 n25bf                                  7      0.0000       0.00000       A     3.20556e-01     8.53756e-01    ;  uncertainty sigma = 0.000032, epsilon = 0.003460
 n26bf                                  7      0.0000       0.00000       A     3.38413e-01     3.93694e-01    ;  uncertainty sigma = 0.000010, epsilon = 0.000693
 c27bf                                  6      0.0000       0.00000       A     3.31537e-01     4.13587e-01    ;  uncertainty sigma = 0.000007, epsilon = 0.000835
 c28bf                                  6      0.0000       0.00000       A     3.31537e-01     4.13587e-01    ;  uncertainty sigma = 0.000007, epsilon = 0.000835
 n29bf                                  7      0.0000       0.00000       A     3.38413e-01     3.93694e-01    ;  uncertainty sigma = 0.000010, epsilon = 0.000693
 h30bf                                  1      0.0000       0.00000       A     2.60034e-01     8.66332e-02    ;  uncertainty sigma = 0.000007, epsilon = 0.000537
 h31bf                                  1      0.0000       0.00000       A     2.60034e-01     8.66332e-02    ;  uncertainty sigma = 0.000007, epsilon = 0.000537
 h32bf                                  1      0.0000       0.00000       A     2.60034e-01     8.66332e-02    ;  uncertainty sigma = 0.000007, epsilon = 0.000537
 h33bf                                  1      0.0000       0.00000       A     2.62580e-01     6.71311e-02    ;  uncertainty sigma = 0.000016, epsilon = 0.000304
 h34bf                                  1      0.0000       0.00000       A     2.60034e-01     8.66332e-02    ;  uncertainty sigma = 0.000007, epsilon = 0.000537
 h35bf                                  1      0.0000       0.00000       A     2.60034e-01     8.66332e-02    ;  uncertainty sigma = 0.000007, epsilon = 0.000537
 h36bf                                  1      0.0000       0.00000       A     2.60034e-01     8.66332e-02    ;  uncertainty sigma = 0.000007, epsilon = 0.000537
 h37bf                                  1      0.0000       0.00000       A     2.42199e-01     8.66324e-02    ;  uncertainty sigma = 0.000024, epsilon = 0.001250
 h38bf                                  1      0.0000       0.00000       A     2.42199e-01     8.66324e-02    ;  uncertainty sigma = 0.000024, epsilon = 0.001250
 h39bf                                  1      0.0000       0.00000       A     2.59994e-01     8.68892e-02    ;  uncertainty sigma = 0.000026, epsilon = 0.000553
 h40bf                                  1      0.0000       0.00000       A     2.42194e-01     8.66543e-02    ;  uncertainty sigma = 0.000021, epsilon = 0.000863
 h41bf                                  1      0.0000       0.00000       A     2.42194e-01     8.66543e-02    ;  uncertainty sigma = 0.000021, epsilon = 0.000863
 h42bf                                  1      0.0000       0.00000       A     2.42194e-01     8.66545e-02    ;  uncertainty sigma = 0.000021, epsilon = 0.000863
 h43bf                                  1      0.0000       0.00000       A     2.42194e-01     8.66545e-02    ;  uncertainty sigma = 0.000021, epsilon = 0.000863
 h44bf                                  1      0.0000       0.00000       A     2.59994e-01     8.68892e-02    ;  uncertainty sigma = 0.000026, epsilon = 0.000553
 h45bf                                  1      0.0000       0.00000       A     2.42199e-01     8.66324e-02    ;  uncertainty sigma = 0.000024, epsilon = 0.001250
 h46bf                                  1      0.0000       0.00000       A     2.42199e-01     8.66324e-02    ;  uncertainty sigma = 0.000024, epsilon = 0.001250
 h47bf                                  1      0.0000       0.00000       A     2.62560e-01     6.71674e-02    ;  uncertainty sigma = 0.000007, epsilon = 0.000695
 h48bf                                  1      0.0000       0.00000       A     2.62567e-01     6.70721e-02    ;  uncertainty sigma = 0.000011, epsilon = 0.000455
 h49bf                                  1      0.0000       0.00000       A     2.62548e-01     6.71628e-02    ;  uncertainty sigma = 0.000015, epsilon = 0.000545
 h50bf                                  1      0.0000       0.00000       A     2.53604e-01     6.70805e-02    ;  uncertainty sigma = 0.000028, epsilon = 0.000600
 h51bf                                  1      0.0000       0.00000       A     2.53604e-01     6.70805e-02    ;  uncertainty sigma = 0.000028, epsilon = 0.000600

[ moleculetype ]
;name             nrexcl
 MOL                   3

[ atoms ]
;       nr            type      resi   res      atom      cgnr      charge          mass ; qtot
         1            c0bf         1   UNL        c0         1    -0.15162       12.0110 ; qtot   -0.152
         2            c1bf         1   UNL        c1         2     0.48649       12.0110 ; qtot    0.335
         3            c2bf         1   UNL        c2         3    -0.41183       12.0110 ; qtot   -0.077
         4            c3bf         1   UNL        c3         4     0.48649       12.0110 ; qtot    0.410
         5            c4bf         1   UNL        c4         5    -0.15162       12.0110 ; qtot    0.258
         6            n5bf         1   UNL        n5         6    -0.77862       14.0070 ; qtot   -0.521
         7            c6bf         1   UNL        c6         7     0.90706       12.0110 ; qtot    0.386
         8            n7bf         1   UNL        n7         8    -0.77862       14.0070 ; qtot   -0.392
         9            n8bf         1   UNL        n8         9    -0.79085       14.0070 ; qtot   -1.183
        10            c9bf         1   UNL        c9        10     0.23390       12.0110 ; qtot   -0.949
        11           c10bf         1   UNL       c10        11    -0.09743       12.0110 ; qtot   -1.047
        12           c11bf         1   UNL       c11        12     0.10795       12.0110 ; qtot   -0.939
        13           n12bf         1   UNL       n12        13    -0.47089       14.0070 ; qtot   -1.410
        14           c13bf         1   UNL       c13        14     0.10795       12.0110 ; qtot   -1.302
        15           c14bf         1   UNL       c14        15    -0.09743       12.0110 ; qtot   -1.399
        16           c15bf         1   UNL       c15        16     0.23390       12.0110 ; qtot   -1.165
        17           c16bf         1   UNL       c16        17     0.69477       12.0110 ; qtot   -0.470
        18           o17bf         1   UNL       o17        18    -0.59062       15.9990 ; qtot   -1.061
        19           c18bf         1   UNL       c18        19    -0.13698       12.0110 ; qtot   -1.198
        20           c19bf         1   UNL       c19        20    -0.06577       12.0110 ; qtot   -1.264
        21           c20bf         1   UNL       c20        21    -0.16382       12.0110 ; qtot   -1.428
        22           c21bf         1   UNL       c21        22     0.15454       12.0110 ; qtot   -1.273
        23           f22bf         1   UNL       f22        23    -0.13978       18.9980 ; qtot   -1.413
        24           c23bf         1   UNL       c23        24    -0.15456       12.0110 ; qtot   -1.567
        25           c24bf         1   UNL       c24        25     0.07963       12.0110 ; qtot   -1.488
        26           n25bf         1   UNL       n25        26     0.30175       14.0070 ; qtot   -1.186
        27           n26bf         1   UNL       n26        27    -0.47266       14.0070 ; qtot   -1.659
        28           c27bf         1   UNL       c27        28     0.20275       12.0110 ; qtot   -1.456
        29           c28bf         1   UNL       c28        29     0.20275       12.0110 ; qtot   -1.253
        30           n29bf         1   UNL       n29        30    -0.47266       14.0070 ; qtot   -1.726
        31           h30bf         1   UNL       h30        31     0.05868        1.0080 ; qtot   -1.667
        32           h31bf         1   UNL       h31        32     0.05868        1.0080 ; qtot   -1.608
        33           h32bf         1   UNL       h32        33     0.05868        1.0080 ; qtot   -1.550
        34           h33bf         1   UNL       h33        34     0.15114        1.0080 ; qtot   -1.399
        35           h34bf         1   UNL       h34        35     0.05868        1.0080 ; qtot   -1.340
        36           h35bf         1   UNL       h35        36     0.05868        1.0080 ; qtot   -1.281
        37           h36bf         1   UNL       h36        37     0.05868        1.0080 ; qtot   -1.223
        38           h37bf         1   UNL       h37        38     0.05891        1.0080 ; qtot   -1.164
        39           h38bf         1   UNL       h38        39     0.05891        1.0080 ; qtot   -1.105
        40           h39bf         1   UNL       h39        40     0.07237        1.0080 ; qtot   -1.032
        41           h40bf         1   UNL       h40        41     0.05981        1.0080 ; qtot   -0.973
        42           h41bf         1   UNL       h41        42     0.05981        1.0080 ; qtot   -0.913
        43           h42bf         1   UNL       h42        43     0.05981        1.0080 ; qtot   -0.853
        44           h43bf         1   UNL       h43        44     0.05981        1.0080 ; qtot   -0.793
        45           h44bf         1   UNL       h44        45     0.07237        1.0080 ; qtot   -0.721
        46           h45bf         1   UNL       h45        46     0.05891        1.0080 ; qtot   -0.662
        47           h46bf         1   UNL       h46        47     0.05891        1.0080 ; qtot   -0.603
        48           h47bf         1   UNL       h47        48     0.15521        1.0080 ; qtot   -0.448
        49           h48bf         1   UNL       h48        49     0.15951        1.0080 ; qtot   -0.288
        50           h49bf         1   UNL       h49        50     0.17835        1.0080 ; qtot   -0.110
        51           h50bf         1   UNL       h50        51     0.05496        1.0080 ; qtot   -0.055
        52           h51bf         1   UNL       h51        52     0.05496        1.0080 ; qtot    0.000

[ bonds ]
;       ai        aj funct               r               k
         1         2     1        0.150631   258312.636768    ;  uncertainty r = 0.000036, k = 5.578436
         1        31     1        0.109444   310537.557666    ;  uncertainty r = 0.000015, k = 1.598088
         1        32     1        0.109444   310537.557666    ;  uncertainty r = 0.000015, k = 1.598088
         1        33     1        0.109444   310537.557666    ;  uncertainty r = 0.000015, k = 1.598088
         2         3     1        0.140287   430446.109863    ;  uncertainty r = 0.000066, k = 4.969217
         2         8     1        0.134238   464612.770313    ;  uncertainty r = 0.000041, k = 6.904087
         3         4     1        0.140287   430446.109863    ;  uncertainty r = 0.000066, k = 4.969217
         3        34     1        0.108737   344393.252734    ;  uncertainty r = 0.000026, k = 3.476286
         4         5     1        0.150631   258312.636768    ;  uncertainty r = 0.000036, k = 5.578436
         4         6     1        0.134238   464612.770313    ;  uncertainty r = 0.000041, k = 6.904087
         5        35     1        0.109444   310537.557666    ;  uncertainty r = 0.000015, k = 1.598088
         5        36     1        0.109444   310537.557666    ;  uncertainty r = 0.000015, k = 1.598088
         5        37     1        0.109444   310537.557666    ;  uncertainty r = 0.000015, k = 1.598088
         6         7     1        0.135351   495763.447070    ;  uncertainty r = 0.000102, k = 13.751618
         7         8     1        0.135351   495763.447070    ;  uncertainty r = 0.000102, k = 13.751618
         7         9     1        0.136652   318374.973145    ;  uncertainty r = 0.000092, k = 21.200785
         9        10     1        0.146381   223708.423486    ;  uncertainty r = 0.000058, k = 14.342670
         9        16     1        0.146381   223708.423486    ;  uncertainty r = 0.000058, k = 14.342768
        10        11     1        0.153378   218045.467334    ;  uncertainty r = 0.000067, k = 7.088220
        10        38     1        0.109551   306518.450781    ;  uncertainty r = 0.000069, k = 2.534282
        10        39     1        0.109551   306518.450781    ;  uncertainty r = 0.000069, k = 2.534282
        11        12     1        0.153480   216617.049121    ;  uncertainty r = 0.000023, k = 7.412723
        11        15     1        0.154451   200722.496875    ;  uncertainty r = 0.000080, k = 20.796785
        11        40     1        0.109350   305021.261133    ;  uncertainty r = 0.000029, k = 3.829702
        12        13     1        0.147066   239433.741309    ;  uncertainty r = 0.000053, k = 14.441706
        12        41     1        0.109439   307434.875488    ;  uncertainty r = 0.000026, k = 1.171544
        12        42     1        0.109439   307434.875488    ;  uncertainty r = 0.000026, k = 1.171544
        13        14     1        0.147066   239433.741309    ;  uncertainty r = 0.000053, k = 14.441669
        13        17     1        0.135489   332216.750391    ;  uncertainty r = 0.000053, k = 11.239131
        14        15     1        0.153480   216617.049121    ;  uncertainty r = 0.000023, k = 7.412681
        14        43     1        0.109439   307434.875488    ;  uncertainty r = 0.000026, k = 1.171521
        14        44     1        0.109439   307434.875488    ;  uncertainty r = 0.000026, k = 1.171521
        15        16     1        0.153378   218045.441797    ;  uncertainty r = 0.000067, k = 7.088228
        15        45     1        0.109350   305021.261133    ;  uncertainty r = 0.000029, k = 3.829660
        16        46     1        0.109551   306518.450781    ;  uncertainty r = 0.000069, k = 2.534287
        16        47     1        0.109551   306518.450781    ;  uncertainty r = 0.000069, k = 2.534287
        17        18     1        0.123646   756943.313867    ;  uncertainty r = 0.000078, k = 7.572673
        17        19     1        0.150792   276320.716797    ;  uncertainty r = 0.000059, k = 23.211784
        19        20     1        0.139723   351184.004248    ;  uncertainty r = 0.000070, k = 5.319918
        19        25     1        0.139418   320006.002783    ;  uncertainty r = 0.000096, k = 4.809558
        20        21     1        0.139229   373127.863574    ;  uncertainty r = 0.000041, k = 8.204182
        20        48     1        0.108612   328394.202637    ;  uncertainty r = 0.000027, k = 1.375679
        21        22     1        0.138964   364526.990674    ;  uncertainty r = 0.000065, k = 3.701679
        21        49     1        0.108774   335685.558105    ;  uncertainty r = 0.000016, k = 1.027844
        22        23     1        0.135486   340114.024854    ;  uncertainty r = 0.000077, k = 2.312847
        22        24     1        0.138692   363452.721094    ;  uncertainty r = 0.000066, k = 4.788523
        24        25     1        0.139162   340770.941455    ;  uncertainty r = 0.000114, k = 5.537658
        24        50     1        0.108696   335853.439062    ;  uncertainty r = 0.000019, k = 2.616106
        25        26     1        0.140509   320053.374121    ;  uncertainty r = 0.000147, k = 3.463668
        26        27     1        0.134420   229055.230225    ;  uncertainty r = 0.000076, k = 9.957201
        26        30     1        0.134420   229055.230225    ;  uncertainty r = 0.000076, k = 9.957201
        27        28     1        0.132965   463550.937305    ;  uncertainty r = 0.000052, k = 7.730519
        28        29     1        0.141781   249584.001709    ;  uncertainty r = 0.000103, k = 15.332670
        28        51     1        0.108418   339910.136572    ;  uncertainty r = 0.000037, k = 1.124302
        29        30     1        0.132965   463550.937305    ;  uncertainty r = 0.000052, k = 7.730519
        29        52     1        0.108418   339910.136572    ;  uncertainty r = 0.000037, k = 1.124302

[ angles ]
;       ai        aj        ak funct           theta             cth
         1         2         3     1      122.372604      418.636154    ;  uncertainty theta = 0.002202, k = 0.178974
         1         2         8     1      118.694351      504.935496    ;  uncertainty theta = 0.002079, k = 0.183388
         2         1        31     1      108.943436      385.594359    ;  uncertainty theta = 0.001293, k = 0.046207
         2         1        32     1      108.943436      385.594359    ;  uncertainty theta = 0.001293, k = 0.046207
         2         1        33     1      108.943436      385.594359    ;  uncertainty theta = 0.001293, k = 0.046207
         2         3         4     1      116.498520      460.598349    ;  uncertainty theta = 0.005053, k = 0.122034
         2         3        34     1      121.718430      273.369457    ;  uncertainty theta = 0.001159, k = 0.085456
         2         8         7     1      115.347641      408.898855    ;  uncertainty theta = 0.006383, k = 0.283100
         3         2         8     1      120.465759      656.141103    ;  uncertainty theta = 0.004510, k = 0.102828
         3         4         5     1      122.372604      418.636154    ;  uncertainty theta = 0.002202, k = 0.178974
         3         4         6     1      120.465759      656.141103    ;  uncertainty theta = 0.004510, k = 0.102828
         4         3        34     1      121.718430      273.369457    ;  uncertainty theta = 0.001159, k = 0.085456
         4         5        35     1      108.943436      385.594359    ;  uncertainty theta = 0.001293, k = 0.046207
         4         5        36     1      108.943436      385.594359    ;  uncertainty theta = 0.001293, k = 0.046207
         4         5        37     1      108.943436      385.594359    ;  uncertainty theta = 0.001293, k = 0.046207
         4         6         7     1      115.347641      408.898855    ;  uncertainty theta = 0.006383, k = 0.283100
         5         4         6     1      118.694351      504.935496    ;  uncertainty theta = 0.002079, k = 0.183388
         6         7         8     1      129.113480      717.709797    ;  uncertainty theta = 0.004729, k = 0.118642
         6         7         9     1      119.537033      549.082007    ;  uncertainty theta = 0.007399, k = 0.202209
         7         9        10     1      113.699562      433.285581    ;  uncertainty theta = 0.003934, k = 0.215172
         7         9        16     1      113.699562      433.285581    ;  uncertainty theta = 0.003934, k = 0.215172
         8         7         9     1      119.537033      549.082007    ;  uncertainty theta = 0.007399, k = 0.202209
         9        10        11     1      105.543358      834.662672    ;  uncertainty theta = 0.001817, k = 0.093259
         9        10        38     1      108.562340      456.415882    ;  uncertainty theta = 0.001202, k = 0.062362
         9        10        39     1      108.562340      456.415882    ;  uncertainty theta = 0.001202, k = 0.062362
         9        16        15     1      105.543358      834.662672    ;  uncertainty theta = 0.001817, k = 0.093260
         9        16        46     1      108.562340      456.415882    ;  uncertainty theta = 0.001202, k = 0.062362
         9        16        47     1      108.562340      456.415882    ;  uncertainty theta = 0.001202, k = 0.062362
        10         9        16     1      112.639450      489.228386    ;  uncertainty theta = 0.009972, k = 0.334405
        10        11        12     1      113.001526      495.885112    ;  uncertainty theta = 0.002967, k = 0.272650
        10        11        15     1      106.407143      696.228300    ;  uncertainty theta = 0.000820, k = 0.121960
        10        11        40     1      108.909218      387.529593    ;  uncertainty theta = 0.002428, k = 0.196423
        11        10        38     1      109.942749      401.681046    ;  uncertainty theta = 0.001744, k = 0.042629
        11        10        39     1      109.942749      401.681046    ;  uncertainty theta = 0.001744, k = 0.042629
        11        12        13     1      106.107704      800.252694    ;  uncertainty theta = 0.003120, k = 0.175972
        11        12        41     1      109.812805      398.157914    ;  uncertainty theta = 0.002056, k = 0.096133
        11        12        42     1      109.812805      398.157914    ;  uncertainty theta = 0.002056, k = 0.096133
        11        15        14     1      106.536072      683.535718    ;  uncertainty theta = 0.002057, k = 0.120116
        11        15        16     1      106.407143      696.228492    ;  uncertainty theta = 0.000820, k = 0.121960
        11        15        45     1      109.787766      408.249925    ;  uncertainty theta = 0.001833, k = 0.098421
        12        11        15     1      106.536072      683.535654    ;  uncertainty theta = 0.002057, k = 0.120117
        12        11        40     1      108.976547      381.109245    ;  uncertainty theta = 0.002391, k = 0.150517
        12        13        14     1      114.291725      544.244257    ;  uncertainty theta = 0.003124, k = 0.147477
        12        13        17     1      118.020897      361.490775    ;  uncertainty theta = 0.004562, k = 0.077410
        13        12        41     1      109.290787      458.934703    ;  uncertainty theta = 0.001401, k = 0.102756
        13        12        42     1      109.290787      458.934703    ;  uncertainty theta = 0.001401, k = 0.102756
        13        14        15     1      106.107704      800.252694    ;  uncertainty theta = 0.003120, k = 0.175972
        13        14        43     1      109.290787      458.934703    ;  uncertainty theta = 0.001401, k = 0.102756
        13        14        44     1      109.290787      458.934703    ;  uncertainty theta = 0.001401, k = 0.102756
        13        17        18     1      124.761780      735.477752    ;  uncertainty theta = 0.002037, k = 0.112262
        13        17        19     1      112.482040      375.092223    ;  uncertainty theta = 0.003785, k = 0.266523
        14        13        17     1      118.020897      361.490839    ;  uncertainty theta = 0.004562, k = 0.077410
        14        15        16     1      113.001526      495.885112    ;  uncertainty theta = 0.002967, k = 0.272650
        14        15        45     1      108.976547      381.109245    ;  uncertainty theta = 0.002391, k = 0.150517
        15        11        40     1      109.787766      408.249925    ;  uncertainty theta = 0.001833, k = 0.098421
        15        14        43     1      109.812805      398.157914    ;  uncertainty theta = 0.002056, k = 0.096133
        15        14        44     1      109.812805      398.157914    ;  uncertainty theta = 0.002056, k = 0.096133
        15        16        46     1      109.942749      401.681014    ;  uncertainty theta = 0.001744, k = 0.042629
        15        16        47     1      109.942749      401.681014    ;  uncertainty theta = 0.001744, k = 0.042629
        16        15        45     1      108.909218      387.529561    ;  uncertainty theta = 0.002428, k = 0.196423
        17        19        20     1      121.504662      379.901690    ;  uncertainty theta = 0.005938, k = 0.082084
        17        19        25     1      121.733620      350.551603    ;  uncertainty theta = 0.008108, k = 0.367340
        18        17        19     1      124.858963      485.089140    ;  uncertainty theta = 0.004049, k = 0.288387
        19        20        21     1      122.394691      508.124123    ;  uncertainty theta = 0.003067, k = 0.134784
        19        20        48     1      119.000671      264.907704    ;  uncertainty theta = 0.002496, k = 0.203699
        19        25        24     1      126.299271      388.782220    ;  uncertainty theta = 0.007131, k = 0.235125
        19        25        26     1      116.543625      427.636485    ;  uncertainty theta = 0.005658, k = 0.363851
        20        19        25     1      121.171043      452.759670    ;  uncertainty theta = 0.009745, k = 0.130681
        20        21        22     1      116.719505      484.238850    ;  uncertainty theta = 0.001733, k = 0.113289
        20        21        49     1      121.658447      277.671917    ;  uncertainty theta = 0.001684, k = 0.066558
        21        20        48     1      119.894775      287.625899    ;  uncertainty theta = 0.001984, k = 0.091958
        21        22        23     1      119.540756      512.148005    ;  uncertainty theta = 0.001427, k = 0.089251
        21        22        24     1      121.475967      357.495111    ;  uncertainty theta = 0.002336, k = 0.075758
        22        21        49     1      121.171188      283.885607    ;  uncertainty theta = 0.000998, k = 0.067646
        22        24        25     1      118.458908      489.219193    ;  uncertainty theta = 0.003946, k = 0.092839
        22        24        50     1      121.986671      286.724695    ;  uncertainty theta = 0.002084, k = 0.106310
        23        22        24     1      118.681961      495.287640    ;  uncertainty theta = 0.002270, k = 0.078612
        24        25        26     1      117.715477      453.042366    ;  uncertainty theta = 0.003075, k = 0.184704
        25        24        50     1      119.624245      264.033026    ;  uncertainty theta = 0.004335, k = 0.091677
        25        26        27     1      116.175865      431.144901    ;  uncertainty theta = 0.007337, k = 0.166474
        25        26        30     1      116.175865      431.144901    ;  uncertainty theta = 0.007337, k = 0.166474
        26        27        28     1      105.326515      920.839563    ;  uncertainty theta = 0.004731, k = 0.165593
        26        30        29     1      105.326515      920.839563    ;  uncertainty theta = 0.004731, k = 0.165593
        27        26        30     1      113.930405     1161.530649    ;  uncertainty theta = 0.004081, k = 0.199051
        27        28        29     1      108.874611      885.375859    ;  uncertainty theta = 0.003815, k = 0.097431
        27        28        51     1      119.790878      274.219077    ;  uncertainty theta = 0.003825, k = 0.115835
        28        29        30     1      108.874611      885.375859    ;  uncertainty theta = 0.003815, k = 0.097431
        28        29        52     1      127.065453      242.460680    ;  uncertainty theta = 0.004115, k = 0.077998
        29        28        51     1      127.065453      242.460680    ;  uncertainty theta = 0.004115, k = 0.077998
        30        29        52     1      119.790878      274.219077    ;  uncertainty theta = 0.003825, k = 0.115835
        31         1        32     1      107.153793      312.530167    ;  uncertainty theta = 0.001242, k = 0.032267
        31         1        33     1      107.153793      312.530167    ;  uncertainty theta = 0.001242, k = 0.032267
        32         1        33     1      107.153793      312.530167    ;  uncertainty theta = 0.001242, k = 0.032267
        35         5        36     1      107.153793      312.530167    ;  uncertainty theta = 0.001242, k = 0.032267
        35         5        37     1      107.153793      312.530167    ;  uncertainty theta = 0.001242, k = 0.032267
        36         5        37     1      107.153793      312.530167    ;  uncertainty theta = 0.001242, k = 0.032267
        38        10        39     1      105.123001      312.324913    ;  uncertainty theta = 0.002382, k = 0.114503
        41        12        42     1      105.371437      309.387890    ;  uncertainty theta = 0.003860, k = 0.079571
        43        14        44     1      105.371437      309.387890    ;  uncertainty theta = 0.003860, k = 0.079571
        46        16        47     1      105.123001      312.324913    ;  uncertainty theta = 0.002382, k = 0.114503

[ dihedrals ] ; propers for gromacs 4.5 or higher, use funct 9
;       ai        aj        ak        al funct           phase               k        pn
         1         2         3         4     9        0.000000       -0.007202         1    ;  uncertainty k = 0.501717
         1         2         3         4     9      180.000000        7.613770         2    ;  uncertainty k = 0.266340
         1         2         3         4     9        0.000000        0.944105         3    ;  uncertainty k = 0.227996
         1         2         3         4     9      180.000000        1.305657         4    ;  uncertainty k = 0.239337
         1         2         3        34     9        0.000000       -0.261675         1    ;  uncertainty k = 0.315637
         1         2         3        34     9      180.000000        6.874962         2    ;  uncertainty k = 0.342650
         1         2         3        34     9        0.000000        0.656535         3    ;  uncertainty k = 0.284603
         1         2         3        34     9      180.000000        0.765991         4    ;  uncertainty k = 0.276599
         1         2         8         7     9        0.000000        0.048315         1    ;  uncertainty k = 0.979765
         1         2         8         7     9      180.000000       15.003732         2    ;  uncertainty k = 0.544478
         1         2         8         7     9        0.000000        2.381190         3    ;  uncertainty k = 0.363196
         1         2         8         7     9      180.000000        1.660639         4    ;  uncertainty k = 0.462769
         2         3         4         5     9        0.000000       -0.007202         1    ;  uncertainty k = 0.501717
         2         3         4         5     9      180.000000        7.613770         2    ;  uncertainty k = 0.266340
         2         3         4         5     9        0.000000        0.944105         3    ;  uncertainty k = 0.227996
         2         3         4         5     9      180.000000        1.305657         4    ;  uncertainty k = 0.239337
         2         3         4         6     9        0.000000       -0.216009         1    ;  uncertainty k = 0.356936
         2         3         4         6     9      180.000000       11.910555         2    ;  uncertainty k = 0.424709
         2         3         4         6     9        0.000000       -1.407438         3    ;  uncertainty k = 0.758939
         2         3         4         6     9      180.000000        0.980955         4    ;  uncertainty k = 0.077687
         2         8         7         6     9        0.000000       -0.609060         1    ;  uncertainty k = 0.758199
         2         8         7         6     9      180.000000        8.692615         2    ;  uncertainty k = 0.791818
         2         8         7         6     9        0.000000        0.670286         3    ;  uncertainty k = 0.621159
         2         8         7         6     9      180.000000        0.786580         4    ;  uncertainty k = 0.112571
         2         8         7         9     9        0.000000        0.521917         1    ;  uncertainty k = 0.979110
         2         8         7         9     9      180.000000       10.533274         2    ;  uncertainty k = 0.414227
         2         8         7         9     9        0.000000        1.726081         3    ;  uncertainty k = 0.365721
         2         8         7         9     9      180.000000        0.994637         4    ;  uncertainty k = 0.141068
         3         2         1        31     9        0.000000       -0.250297         1    ;  uncertainty k = 0.274873
         3         2         1        31     9      180.000000        2.290444         2    ;  uncertainty k = 0.171777
         3         2         1        31     9        0.000000        0.278065         3    ;  uncertainty k = 0.038017
         3         2         1        31     9      180.000000        0.146673         4    ;  uncertainty k = 0.025666
         3         2         1        32     9        0.000000       -0.250297         1    ;  uncertainty k = 0.274873
         3         2         1        32     9      180.000000        2.290444         2    ;  uncertainty k = 0.171777
         3         2         1        32     9        0.000000        0.278065         3    ;  uncertainty k = 0.038017
         3         2         1        32     9      180.000000        0.146673         4    ;  uncertainty k = 0.025666
         3         2         1        33     9        0.000000       -0.250297         1    ;  uncertainty k = 0.274873
         3         2         1        33     9      180.000000        2.290444         2    ;  uncertainty k = 0.171777
         3         2         1        33     9        0.000000        0.278065         3    ;  uncertainty k = 0.038017
         3         2         1        33     9      180.000000        0.146673         4    ;  uncertainty k = 0.025666
         3         2         8         7     9        0.000000       -0.347754         1    ;  uncertainty k = 0.474198
         3         2         8         7     9      180.000000       15.075407         2    ;  uncertainty k = 0.177114
         3         2         8         7     9        0.000000        0.171723         3    ;  uncertainty k = 0.438996
         3         2         8         7     9      180.000000        1.128465         4    ;  uncertainty k = 0.364424
         3         4         5        35     9        0.000000       -0.250297         1    ;  uncertainty k = 0.274873
         3         4         5        35     9      180.000000        2.290444         2    ;  uncertainty k = 0.171777
         3         4         5        35     9        0.000000        0.278065         3    ;  uncertainty k = 0.038017
         3         4         5        35     9      180.000000        0.146673         4    ;  uncertainty k = 0.025666
         3         4         5        36     9        0.000000       -0.250297         1    ;  uncertainty k = 0.274873
         3         4         5        36     9      180.000000        2.290444         2    ;  uncertainty k = 0.171777
         3         4         5        36     9        0.000000        0.278065         3    ;  uncertainty k = 0.038017
         3         4         5        36     9      180.000000        0.146673         4    ;  uncertainty k = 0.025666
         3         4         5        37     9        0.000000       -0.250297         1    ;  uncertainty k = 0.274873
         3         4         5        37     9      180.000000        2.290444         2    ;  uncertainty k = 0.171777
         3         4         5        37     9        0.000000        0.278065         3    ;  uncertainty k = 0.038017
         3         4         5        37     9      180.000000        0.146673         4    ;  uncertainty k = 0.025666
         3         4         6         7     9        0.000000       -0.347754         1    ;  uncertainty k = 0.474198
         3         4         6         7     9      180.000000       15.075407         2    ;  uncertainty k = 0.177114
         3         4         6         7     9        0.000000        0.171723         3    ;  uncertainty k = 0.438996
         3         4         6         7     9      180.000000        1.128465         4    ;  uncertainty k = 0.364424
         4         3         2         8     9        0.000000       -0.216009         1    ;  uncertainty k = 0.356936
         4         3         2         8     9      180.000000       11.910555         2    ;  uncertainty k = 0.424709
         4         3         2         8     9        0.000000       -1.407438         3    ;  uncertainty k = 0.758939
         4         3         2         8     9      180.000000        0.980955         4    ;  uncertainty k = 0.077687
         4         6         7         8     9        0.000000       -0.609060         1    ;  uncertainty k = 0.758199
         4         6         7         8     9      180.000000        8.692615         2    ;  uncertainty k = 0.791818
         4         6         7         8     9        0.000000        0.670286         3    ;  uncertainty k = 0.621159
         4         6         7         8     9      180.000000        0.786580         4    ;  uncertainty k = 0.112571
         4         6         7         9     9        0.000000        0.521917         1    ;  uncertainty k = 0.979110
         4         6         7         9     9      180.000000       10.533274         2    ;  uncertainty k = 0.414227
         4         6         7         9     9        0.000000        1.726081         3    ;  uncertainty k = 0.365721
         4         6         7         9     9      180.000000        0.994637         4    ;  uncertainty k = 0.141068
         5         4         3        34     9        0.000000       -0.261675         1    ;  uncertainty k = 0.315637
         5         4         3        34     9      180.000000        6.874962         2    ;  uncertainty k = 0.342650
         5         4         3        34     9        0.000000        0.656535         3    ;  uncertainty k = 0.284603
         5         4         3        34     9      180.000000        0.765991         4    ;  uncertainty k = 0.276599
         5         4         6         7     9        0.000000        0.048315         1    ;  uncertainty k = 0.979765
         5         4         6         7     9      180.000000       15.003732         2    ;  uncertainty k = 0.544478
         5         4         6         7     9        0.000000        2.381190         3    ;  uncertainty k = 0.363196
         5         4         6         7     9      180.000000        1.660639         4    ;  uncertainty k = 0.462769
         6         4         3        34     9        0.000000        0.224609         1    ;  uncertainty k = 0.474805
         6         4         3        34     9      180.000000        8.441723         2    ;  uncertainty k = 0.328864
         6         4         3        34     9        0.000000        1.108367         3    ;  uncertainty k = 0.321336
         6         4         3        34     9      180.000000        1.600213         4    ;  uncertainty k = 0.093449
         6         4         5        35     9        0.000000        0.603364         1    ;  uncertainty k = 0.264623
         6         4         5        35     9      180.000000        3.634560         2    ;  uncertainty k = 0.065840
         6         4         5        35     9        0.000000        0.492173         3    ;  uncertainty k = 0.029988
         6         4         5        35     9      180.000000        0.275109         4    ;  uncertainty k = 0.045162
         6         4         5        36     9        0.000000        0.603364         1    ;  uncertainty k = 0.264623
         6         4         5        36     9      180.000000        3.634560         2    ;  uncertainty k = 0.065840
         6         4         5        36     9        0.000000        0.492173         3    ;  uncertainty k = 0.029988
         6         4         5        36     9      180.000000        0.275109         4    ;  uncertainty k = 0.045162
         6         4         5        37     9        0.000000        0.603364         1    ;  uncertainty k = 0.264623
         6         4         5        37     9      180.000000        3.634560         2    ;  uncertainty k = 0.065840
         6         4         5        37     9        0.000000        0.492173         3    ;  uncertainty k = 0.029988
         6         4         5        37     9      180.000000        0.275109         4    ;  uncertainty k = 0.045162
         6         7         9        10     9        0.000000        5.106263         1    ;  uncertainty k = 0.513053
         6         7         9        10     9      180.000000       11.756744         2    ;  uncertainty k = 0.134928
         6         7         9        10     9        0.000000        0.174633         3    ;  uncertainty k = 0.195421
         6         7         9        10     9      180.000000       -0.347384         4    ;  uncertainty k = 0.051935
         6         7         9        16     9        0.000000        5.106262         1    ;  uncertainty k = 0.513053
         6         7         9        16     9      180.000000       11.756744         2    ;  uncertainty k = 0.134928
         6         7         9        16     9        0.000000        0.174633         3    ;  uncertainty k = 0.195420
         6         7         9        16     9      180.000000       -0.347384         4    ;  uncertainty k = 0.051934
         7         9        10        11     9        0.000000       -5.472950         1    ;  uncertainty k = 1.903105
         7         9        10        11     9      180.000000        0.716175         2    ;  uncertainty k = 0.687896
         7         9        10        11     9        0.000000        0.811633         3    ;  uncertainty k = 0.285403
         7         9        10        11     9      180.000000        0.315930         4    ;  uncertainty k = 0.127584
         7         9        10        38     9        0.000000       -0.203572         1    ;  uncertainty k = 0.772783
         7         9        10        38     9      180.000000        1.020940         2    ;  uncertainty k = 0.423811
         7         9        10        38     9        0.000000        0.580937         3    ;  uncertainty k = 0.130796
         7         9        10        38     9      180.000000        0.377931         4    ;  uncertainty k = 0.101923
         7         9        10        39     9        0.000000       -0.203572         1    ;  uncertainty k = 0.772783
         7         9        10        39     9      180.000000        1.020940         2    ;  uncertainty k = 0.423811
         7         9        10        39     9        0.000000        0.580937         3    ;  uncertainty k = 0.130796
         7         9        10        39     9      180.000000        0.377931         4    ;  uncertainty k = 0.101923
         7         9        16        15     9        0.000000       -5.472951         1    ;  uncertainty k = 1.903105
         7         9        16        15     9      180.000000        0.716175         2    ;  uncertainty k = 0.687896
         7         9        16        15     9        0.000000        0.811634         3    ;  uncertainty k = 0.285402
         7         9        16        15     9      180.000000        0.315929         4    ;  uncertainty k = 0.127584
         7         9        16        46     9        0.000000       -0.203573         1    ;  uncertainty k = 0.772782
         7         9        16        46     9      180.000000        1.020940         2    ;  uncertainty k = 0.423811
         7         9        16        46     9        0.000000        0.580937         3    ;  uncertainty k = 0.130796
         7         9        16        46     9      180.000000        0.377930         4    ;  uncertainty k = 0.101923
         7         9        16        47     9        0.000000       -0.203573         1    ;  uncertainty k = 0.772782
         7         9        16        47     9      180.000000        1.020940         2    ;  uncertainty k = 0.423811
         7         9        16        47     9        0.000000        0.580937         3    ;  uncertainty k = 0.130796
         7         9        16        47     9      180.000000        0.377930         4    ;  uncertainty k = 0.101923
         8         2         1        31     9        0.000000        0.603364         1    ;  uncertainty k = 0.264623
         8         2         1        31     9      180.000000        3.634560         2    ;  uncertainty k = 0.065840
         8         2         1        31     9        0.000000        0.492173         3    ;  uncertainty k = 0.029988
         8         2         1        31     9      180.000000        0.275109         4    ;  uncertainty k = 0.045162
         8         2         1        32     9        0.000000        0.603364         1    ;  uncertainty k = 0.264623
         8         2         1        32     9      180.000000        3.634560         2    ;  uncertainty k = 0.065840
         8         2         1        32     9        0.000000        0.492173         3    ;  uncertainty k = 0.029988
         8         2         1        32     9      180.000000        0.275109         4    ;  uncertainty k = 0.045162
         8         2         1        33     9        0.000000        0.603364         1    ;  uncertainty k = 0.264623
         8         2         1        33     9      180.000000        3.634560         2    ;  uncertainty k = 0.065840
         8         2         1        33     9        0.000000        0.492173         3    ;  uncertainty k = 0.029988
         8         2         1        33     9      180.000000        0.275109         4    ;  uncertainty k = 0.045162
         8         2         3        34     9        0.000000        0.224609         1    ;  uncertainty k = 0.474805
         8         2         3        34     9      180.000000        8.441723         2    ;  uncertainty k = 0.328864
         8         2         3        34     9        0.000000        1.108367         3    ;  uncertainty k = 0.321336
         8         2         3        34     9      180.000000        1.600213         4    ;  uncertainty k = 0.093449
         8         7         9        10     9        0.000000        5.106263         1    ;  uncertainty k = 0.513053
         8         7         9        10     9      180.000000       11.756744         2    ;  uncertainty k = 0.134928
         8         7         9        10     9        0.000000        0.174633         3    ;  uncertainty k = 0.195421
         8         7         9        10     9      180.000000       -0.347384         4    ;  uncertainty k = 0.051935
         8         7         9        16     9        0.000000        5.106262         1    ;  uncertainty k = 0.513053
         8         7         9        16     9      180.000000       11.756744         2    ;  uncertainty k = 0.134928
         8         7         9        16     9        0.000000        0.174633         3    ;  uncertainty k = 0.195420
         8         7         9        16     9      180.000000       -0.347384         4    ;  uncertainty k = 0.051934
         9        10        11        12     9        0.000000       -1.986983         1    ;  uncertainty k = 1.131585
         9        10        11        12     9      180.000000        0.974418         2    ;  uncertainty k = 0.865255
         9        10        11        12     9        0.000000        1.658617         3    ;  uncertainty k = 0.387465
         9        10        11        12     9      180.000000       -0.170489         4    ;  uncertainty k = 0.236446
         9        10        11        15     9        0.000000       -0.248944         1    ;  uncertainty k = 1.669287
         9        10        11        15     9      180.000000        6.161827         2    ;  uncertainty k = 1.110762
         9        10        11        15     9        0.000000        0.670927         3    ;  uncertainty k = 0.347090
         9        10        11        15     9      180.000000       -1.488831         4    ;  uncertainty k = 0.506459
         9        10        11        40     9        0.000000        0.565924         1    ;  uncertainty k = 0.856652
         9        10        11        40     9      180.000000        1.324273         2    ;  uncertainty k = 0.513614
         9        10        11        40     9        0.000000        1.171168         3    ;  uncertainty k = 0.217599
         9        10        11        40     9      180.000000       -0.072433         4    ;  uncertainty k = 0.184790
         9        16        15        11     9        0.000000       -0.248943         1    ;  uncertainty k = 1.669287
         9        16        15        11     9      180.000000        6.161829         2    ;  uncertainty k = 1.110761
         9        16        15        11     9        0.000000        0.670927         3    ;  uncertainty k = 0.347090
         9        16        15        11     9      180.000000       -1.488831         4    ;  uncertainty k = 0.506459
         9        16        15        14     9        0.000000       -1.986983         1    ;  uncertainty k = 1.131581
         9        16        15        14     9      180.000000        0.974419         2    ;  uncertainty k = 0.865256
         9        16        15        14     9        0.000000        1.658617         3    ;  uncertainty k = 0.387464
         9        16        15        14     9      180.000000       -0.170489         4    ;  uncertainty k = 0.236446
         9        16        15        45     9        0.000000        0.565926         1    ;  uncertainty k = 0.856651
         9        16        15        45     9      180.000000        1.324272         2    ;  uncertainty k = 0.513614
         9        16        15        45     9        0.000000        1.171168         3    ;  uncertainty k = 0.217601
         9        16        15        45     9      180.000000       -0.072433         4    ;  uncertainty k = 0.184790
        10         9        16        15     9        0.000000        0.409930         1    ;  uncertainty k = 1.033845
        10         9        16        15     9      180.000000        1.423325         2    ;  uncertainty k = 1.181231
        10         9        16        15     9        0.000000        0.860226         3    ;  uncertainty k = 0.332034
        10         9        16        15     9      180.000000        0.010765         4    ;  uncertainty k = 0.168707
        10         9        16        46     9        0.000000       -2.106813         1    ;  uncertainty k = 0.722683
        10         9        16        46     9      180.000000        1.271153         2    ;  uncertainty k = 0.391419
        10         9        16        46     9        0.000000        1.144989         3    ;  uncertainty k = 0.081016
        10         9        16        46     9      180.000000        0.249969         4    ;  uncertainty k = 0.124009
        10         9        16        47     9        0.000000       -2.106813         1    ;  uncertainty k = 0.722683
        10         9        16        47     9      180.000000        1.271153         2    ;  uncertainty k = 0.391419
        10         9        16        47     9        0.000000        1.144989         3    ;  uncertainty k = 0.081016
        10         9        16        47     9      180.000000        0.249969         4    ;  uncertainty k = 0.124009
        10        11        12        13     9        0.000000       -2.553642         1    ;  uncertainty k = 1.026054
        10        11        12        13     9      180.000000       -0.018661         2    ;  uncertainty k = 0.745822
        10        11        12        13     9        0.000000        1.607209         3    ;  uncertainty k = 0.236201
        10        11        12        13     9      180.000000       -0.188588         4    ;  uncertainty k = 0.120205
        10        11        12        41     9        0.000000       -0.498818         1    ;  uncertainty k = 0.107247
        10        11        12        41     9      180.000000       -0.409706         2    ;  uncertainty k = 0.197166
        10        11        12        41     9        0.000000        0.564543         3    ;  uncertainty k = 0.186998
        10        11        12        41     9      180.000000       -0.072177         4    ;  uncertainty k = 0.062323
        10        11        12        42     9        0.000000       -0.498818         1    ;  uncertainty k = 0.107247
        10        11        12        42     9      180.000000       -0.409706         2    ;  uncertainty k = 0.197166
        10        11        12        42     9        0.000000        0.564543         3    ;  uncertainty k = 0.186998
        10        11        12        42     9      180.000000       -0.072177         4    ;  uncertainty k = 0.062323
        10        11        15        14     9        0.000000       -3.847150         1    ;  uncertainty k = 0.842081
        10        11        15        14     9      180.000000        0.994502         2    ;  uncertainty k = 1.017626
        10        11        15        14     9        0.000000        1.189094         3    ;  uncertainty k = 0.581588
        10        11        15        14     9      180.000000       -0.416044         4    ;  uncertainty k = 0.334399
        10        11        15        16     9        0.000000       -3.896618         1    ;  uncertainty k = 1.087275
        10        11        15        16     9      180.000000        1.035025         2    ;  uncertainty k = 1.026286
        10        11        15        16     9        0.000000        1.207838         3    ;  uncertainty k = 0.671623
        10        11        15        16     9      180.000000       -0.436931         4    ;  uncertainty k = 0.343366
        10        11        15        45     9        0.000000       -1.223112         1    ;  uncertainty k = 0.611377
        10        11        15        45     9      180.000000        0.489634         2    ;  uncertainty k = 0.414978
        10        11        15        45     9        0.000000        0.997353         3    ;  uncertainty k = 0.241670
        10        11        15        45     9      180.000000        0.066778         4    ;  uncertainty k = 0.087125
        11        10         9        16     9        0.000000        0.409931         1    ;  uncertainty k = 1.033845
        11        10         9        16     9      180.000000        1.423324         2    ;  uncertainty k = 1.181232
        11        10         9        16     9        0.000000        0.860226         3    ;  uncertainty k = 0.332034
        11        10         9        16     9      180.000000        0.010765         4    ;  uncertainty k = 0.168708
        11        12        13        14     9        0.000000       -0.577894         1    ;  uncertainty k = 0.965263
        11        12        13        14     9      180.000000        0.209543         2    ;  uncertainty k = 0.707884
        11        12        13        14     9        0.000000        0.796577         3    ;  uncertainty k = 0.216244
        11        12        13        14     9      180.000000        0.149599         4    ;  uncertainty k = 0.256658
        11        12        13        17     9        0.000000       -0.048248         1    ;  uncertainty k = 0.771541
        11        12        13        17     9      180.000000       -0.518657         2    ;  uncertainty k = 0.369846
        11        12        13        17     9        0.000000        0.221125         3    ;  uncertainty k = 0.324608
        11        12        13        17     9      180.000000        0.750102         4    ;  uncertainty k = 0.141193
        11        15        14        13     9        0.000000       -0.756384         1    ;  uncertainty k = 0.691038
        11        15        14        13     9      180.000000        5.856437         2    ;  uncertainty k = 0.964493
        11        15        14        13     9        0.000000        0.445306         3    ;  uncertainty k = 0.293243
        11        15        14        13     9      180.000000       -1.144824         4    ;  uncertainty k = 0.220768
        11        15        14        43     9        0.000000        0.480411         1    ;  uncertainty k = 0.492791
        11        15        14        43     9      180.000000       -1.104496         2    ;  uncertainty k = 0.672329
        11        15        14        43     9        0.000000       -0.270073         3    ;  uncertainty k = 0.170671
        11        15        14        43     9      180.000000       -0.013160         4    ;  uncertainty k = 0.174221
        11        15        14        44     9        0.000000        0.480411         1    ;  uncertainty k = 0.492791
        11        15        14        44     9      180.000000       -1.104496         2    ;  uncertainty k = 0.672329
        11        15        14        44     9        0.000000       -0.270073         3    ;  uncertainty k = 0.170671
        11        15        14        44     9      180.000000       -0.013160         4    ;  uncertainty k = 0.174221
        11        15        16        46     9        0.000000        0.646621         1    ;  uncertainty k = 0.517783
        11        15        16        46     9      180.000000       -1.099688         2    ;  uncertainty k = 0.743824
        11        15        16        46     9        0.000000       -0.334779         3    ;  uncertainty k = 0.213643
        11        15        16        46     9      180.000000       -0.018734         4    ;  uncertainty k = 0.206092
        11        15        16        47     9        0.000000        0.646621         1    ;  uncertainty k = 0.517783
        11        15        16        47     9      180.000000       -1.099688         2    ;  uncertainty k = 0.743824
        11        15        16        47     9        0.000000       -0.334779         3    ;  uncertainty k = 0.213643
        11        15        16        47     9      180.000000       -0.018734         4    ;  uncertainty k = 0.206092
        12        11        10        38     9        0.000000       -0.670734         1    ;  uncertainty k = 0.233995
        12        11        10        38     9      180.000000       -0.386310         2    ;  uncertainty k = 0.258590
        12        11        10        38     9        0.000000        0.557637         3    ;  uncertainty k = 0.179621
        12        11        10        38     9      180.000000       -0.081826         4    ;  uncertainty k = 0.095492
        12        11        10        39     9        0.000000       -0.670734         1    ;  uncertainty k = 0.233995
        12        11        10        39     9      180.000000       -0.386310         2    ;  uncertainty k = 0.258590
        12        11        10        39     9        0.000000        0.557637         3    ;  uncertainty k = 0.179621
        12        11        10        39     9      180.000000       -0.081826         4    ;  uncertainty k = 0.095492
        12        11        15        14     9        0.000000       -3.717091         1    ;  uncertainty k = 0.646014
        12        11        15        14     9      180.000000        0.952705         2    ;  uncertainty k = 0.984304
        12        11        15        14     9        0.000000        1.178983         3    ;  uncertainty k = 0.499657
        12        11        15        14     9      180.000000       -0.410261         4    ;  uncertainty k = 0.338854
        12        11        15        16     9        0.000000       -3.847151         1    ;  uncertainty k = 0.842082
        12        11        15        16     9      180.000000        0.994504         2    ;  uncertainty k = 1.017625
        12        11        15        16     9        0.000000        1.189094         3    ;  uncertainty k = 0.581588
        12        11        15        16     9      180.000000       -0.416044         4    ;  uncertainty k = 0.334399
        12        11        15        45     9        0.000000       -1.291634         1    ;  uncertainty k = 0.560343
        12        11        15        45     9      180.000000        0.594321         2    ;  uncertainty k = 0.368266
        12        11        15        45     9        0.000000        1.030260         3    ;  uncertainty k = 0.246250
        12        11        15        45     9      180.000000        0.081405         4    ;  uncertainty k = 0.059901
        12        13        14        15     9        0.000000       -0.577894         1    ;  uncertainty k = 0.965264
        12        13        14        15     9      180.000000        0.209542         2    ;  uncertainty k = 0.707883
        12        13        14        15     9        0.000000        0.796577         3    ;  uncertainty k = 0.216244
        12        13        14        15     9      180.000000        0.149599         4    ;  uncertainty k = 0.256658
        12        13        14        43     9        0.000000       -1.853142         1    ;  uncertainty k = 0.582033
        12        13        14        43     9      180.000000        1.033698         2    ;  uncertainty k = 0.450442
        12        13        14        43     9        0.000000        1.252345         3    ;  uncertainty k = 0.140560
        12        13        14        43     9      180.000000        0.292848         4    ;  uncertainty k = 0.121326
        12        13        14        44     9        0.000000       -1.853142         1    ;  uncertainty k = 0.582033
        12        13        14        44     9      180.000000        1.033698         2    ;  uncertainty k = 0.450442
        12        13        14        44     9        0.000000        1.252345         3    ;  uncertainty k = 0.140560
        12        13        14        44     9      180.000000        0.292848         4    ;  uncertainty k = 0.121326
        12        13        17        18     9        0.000000        5.936148         1    ;  uncertainty k = 0.417343
        12        13        17        18     9      180.000000       16.878802         2    ;  uncertainty k = 0.193431
        12        13        17        18     9        0.000000        0.213255         3    ;  uncertainty k = 0.136425
        12        13        17        18     9      180.000000       -1.067389         4    ;  uncertainty k = 0.149505
        12        13        17        19     9        0.000000        3.592862         1    ;  uncertainty k = 1.301409
        12        13        17        19     9      180.000000        8.352895         2    ;  uncertainty k = 0.375872
        12        13        17        19     9        0.000000        1.762295         3    ;  uncertainty k = 0.419285
        12        13        17        19     9      180.000000        0.034368         4    ;  uncertainty k = 0.202310
        13        12        11        15     9        0.000000       -0.756383         1    ;  uncertainty k = 0.691039
        13        12        11        15     9      180.000000        5.856438         2    ;  uncertainty k = 0.964489
        13        12        11        15     9        0.000000        0.445306         3    ;  uncertainty k = 0.293243
        13        12        11        15     9      180.000000       -1.144824         4    ;  uncertainty k = 0.220768
        13        12        11        40     9        0.000000        0.134769         1    ;  uncertainty k = 0.685952
        13        12        11        40     9      180.000000        0.831761         2    ;  uncertainty k = 0.416184
        13        12        11        40     9        0.000000        1.099682         3    ;  uncertainty k = 0.160463
        13        12        11        40     9      180.000000       -0.068376         4    ;  uncertainty k = 0.100460
        13        14        15        16     9        0.000000       -2.553641         1    ;  uncertainty k = 1.026052
        13        14        15        16     9      180.000000       -0.018662         2    ;  uncertainty k = 0.745823
        13        14        15        16     9        0.000000        1.607209         3    ;  uncertainty k = 0.236202
        13        14        15        16     9      180.000000       -0.188588         4    ;  uncertainty k = 0.120204
        13        14        15        45     9        0.000000        0.134769         1    ;  uncertainty k = 0.685952
        13        14        15        45     9      180.000000        0.831760         2    ;  uncertainty k = 0.416184
        13        14        15        45     9        0.000000        1.099681         3    ;  uncertainty k = 0.160462
        13        14        15        45     9      180.000000       -0.068376         4    ;  uncertainty k = 0.100460
        13        17        19        20     9        0.000000        2.144863         1    ;  uncertainty k = 1.038695
        13        17        19        20     9      180.000000        5.210615         2    ;  uncertainty k = 0.425597
        13        17        19        20     9        0.000000        0.250047         3    ;  uncertainty k = 0.186378
        13        17        19        20     9      180.000000        0.308819         4    ;  uncertainty k = 0.135666
        13        17        19        25     9        0.000000        2.774097         1    ;  uncertainty k = 1.066773
        13        17        19        25     9      180.000000        5.741964         2    ;  uncertainty k = 0.331636
        13        17        19        25     9        0.000000       -0.096736         3    ;  uncertainty k = 0.085026
        13        17        19        25     9      180.000000        0.477679         4    ;  uncertainty k = 0.147400
        14        13        12        41     9        0.000000       -1.853141         1    ;  uncertainty k = 0.582034
        14        13        12        41     9      180.000000        1.033695         2    ;  uncertainty k = 0.450442
        14        13        12        41     9        0.000000        1.252346         3    ;  uncertainty k = 0.140560
        14        13        12        41     9      180.000000        0.292848         4    ;  uncertainty k = 0.121326
        14        13        12        42     9        0.000000       -1.853141         1    ;  uncertainty k = 0.582034
        14        13        12        42     9      180.000000        1.033695         2    ;  uncertainty k = 0.450442
        14        13        12        42     9        0.000000        1.252346         3    ;  uncertainty k = 0.140560
        14        13        12        42     9      180.000000        0.292848         4    ;  uncertainty k = 0.121326
        14        13        17        18     9        0.000000        5.936148         1    ;  uncertainty k = 0.417343
        14        13        17        18     9      180.000000       16.878798         2    ;  uncertainty k = 0.193430
        14        13        17        18     9        0.000000        0.213255         3    ;  uncertainty k = 0.136425
        14        13        17        18     9      180.000000       -1.067389         4    ;  uncertainty k = 0.149505
        14        13        17        19     9        0.000000        3.592861         1    ;  uncertainty k = 1.301410
        14        13        17        19     9      180.000000        8.352894         2    ;  uncertainty k = 0.375873
        14        13        17        19     9        0.000000        1.762298         3    ;  uncertainty k = 0.419284
        14        13        17        19     9      180.000000        0.034368         4    ;  uncertainty k = 0.202311
        14        15        11        40     9        0.000000       -1.291633         1    ;  uncertainty k = 0.560343
        14        15        11        40     9      180.000000        0.594321         2    ;  uncertainty k = 0.368268
        14        15        11        40     9        0.000000        1.030260         3    ;  uncertainty k = 0.246250
        14        15        11        40     9      180.000000        0.081405         4    ;  uncertainty k = 0.059900
        14        15        16        46     9        0.000000       -0.670733         1    ;  uncertainty k = 0.233996
        14        15        16        46     9      180.000000       -0.386309         2    ;  uncertainty k = 0.258591
        14        15        16        46     9        0.000000        0.557638         3    ;  uncertainty k = 0.179621
        14        15        16        46     9      180.000000       -0.081826         4    ;  uncertainty k = 0.095492
        14        15        16        47     9        0.000000       -0.670733         1    ;  uncertainty k = 0.233996
        14        15        16        47     9      180.000000       -0.386309         2    ;  uncertainty k = 0.258591
        14        15        16        47     9        0.000000        0.557638         3    ;  uncertainty k = 0.179621
        14        15        16        47     9      180.000000       -0.081826         4    ;  uncertainty k = 0.095492
        15        11        10        38     9        0.000000        0.646621         1    ;  uncertainty k = 0.517781
        15        11        10        38     9      180.000000       -1.099689         2    ;  uncertainty k = 0.743823
        15        11        10        38     9        0.000000       -0.334778         3    ;  uncertainty k = 0.213644
        15        11        10        38     9      180.000000       -0.018734         4    ;  uncertainty k = 0.206091
        15        11        10        39     9        0.000000        0.646621         1    ;  uncertainty k = 0.517781
        15        11        10        39     9      180.000000       -1.099689         2    ;  uncertainty k = 0.743823
        15        11        10        39     9        0.000000       -0.334778         3    ;  uncertainty k = 0.213644
        15        11        10        39     9      180.000000       -0.018734         4    ;  uncertainty k = 0.206091
        15        11        12        41     9        0.000000        0.480411         1    ;  uncertainty k = 0.492791
        15        11        12        41     9      180.000000       -1.104495         2    ;  uncertainty k = 0.672328
        15        11        12        41     9        0.000000       -0.270073         3    ;  uncertainty k = 0.170671
        15        11        12        41     9      180.000000       -0.013161         4    ;  uncertainty k = 0.174221
        15        11        12        42     9        0.000000        0.480411         1    ;  uncertainty k = 0.492791
        15        11        12        42     9      180.000000       -1.104495         2    ;  uncertainty k = 0.672328
        15        11        12        42     9        0.000000       -0.270073         3    ;  uncertainty k = 0.170671
        15        11        12        42     9      180.000000       -0.013161         4    ;  uncertainty k = 0.174221
        15        14        13        17     9        0.000000       -0.048249         1    ;  uncertainty k = 0.771538
        15        14        13        17     9      180.000000       -0.518657         2    ;  uncertainty k = 0.369846
        15        14        13        17     9        0.000000        0.221125         3    ;  uncertainty k = 0.324608
        15        14        13        17     9      180.000000        0.750102         4    ;  uncertainty k = 0.141192
        16         9        10        38     9        0.000000       -2.106814         1    ;  uncertainty k = 0.722683
        16         9        10        38     9      180.000000        1.271154         2    ;  uncertainty k = 0.391419
        16         9        10        38     9        0.000000        1.144989         3    ;  uncertainty k = 0.081016
        16         9        10        38     9      180.000000        0.249969         4    ;  uncertainty k = 0.124009
        16         9        10        39     9        0.000000       -2.106814         1    ;  uncertainty k = 0.722683
        16         9        10        39     9      180.000000        1.271154         2    ;  uncertainty k = 0.391419
        16         9        10        39     9        0.000000        1.144989         3    ;  uncertainty k = 0.081016
        16         9        10        39     9      180.000000        0.249969         4    ;  uncertainty k = 0.124009
        16        15        11        40     9        0.000000       -1.223110         1    ;  uncertainty k = 0.611378
        16        15        11        40     9      180.000000        0.489635         2    ;  uncertainty k = 0.414979
        16        15        11        40     9        0.000000        0.997353         3    ;  uncertainty k = 0.241669
        16        15        11        40     9      180.000000        0.066778         4    ;  uncertainty k = 0.087125
        16        15        14        43     9        0.000000       -0.498818         1    ;  uncertainty k = 0.107248
        16        15        14        43     9      180.000000       -0.409705         2    ;  uncertainty k = 0.197166
        16        15        14        43     9        0.000000        0.564544         3    ;  uncertainty k = 0.186998
        16        15        14        43     9      180.000000       -0.072177         4    ;  uncertainty k = 0.062323
        16        15        14        44     9        0.000000       -0.498818         1    ;  uncertainty k = 0.107248
        16        15        14        44     9      180.000000       -0.409705         2    ;  uncertainty k = 0.197166
        16        15        14        44     9        0.000000        0.564544         3    ;  uncertainty k = 0.186998
        16        15        14        44     9      180.000000       -0.072177         4    ;  uncertainty k = 0.062323
        17        13        12        41     9        0.000000        1.377335         1    ;  uncertainty k = 0.707067
        17        13        12        41     9      180.000000        0.130202         2    ;  uncertainty k = 0.115341
        17        13        12        41     9        0.000000        0.026326         3    ;  uncertainty k = 0.101280
        17        13        12        41     9      180.000000        0.261591         4    ;  uncertainty k = 0.059749
        17        13        12        42     9        0.000000        1.377335         1    ;  uncertainty k = 0.707067
        17        13        12        42     9      180.000000        0.130202         2    ;  uncertainty k = 0.115341
        17        13        12        42     9        0.000000        0.026326         3    ;  uncertainty k = 0.101280
        17        13        12        42     9      180.000000        0.261591         4    ;  uncertainty k = 0.059749
        17        13        14        43     9        0.000000        1.377334         1    ;  uncertainty k = 0.707068
        17        13        14        43     9      180.000000        0.130202         2    ;  uncertainty k = 0.115342
        17        13        14        43     9        0.000000        0.026326         3    ;  uncertainty k = 0.101280
        17        13        14        43     9      180.000000        0.261591         4    ;  uncertainty k = 0.059748
        17        13        14        44     9        0.000000        1.377334         1    ;  uncertainty k = 0.707068
        17        13        14        44     9      180.000000        0.130202         2    ;  uncertainty k = 0.115342
        17        13        14        44     9        0.000000        0.026326         3    ;  uncertainty k = 0.101280
        17        13        14        44     9      180.000000        0.261591         4    ;  uncertainty k = 0.059748
        17        19        20        21     9        0.000000        0.296637         1    ;  uncertainty k = 0.385765
        17        19        20        21     9      180.000000        9.021341         2    ;  uncertainty k = 0.706049
        17        19        20        21     9        0.000000        1.316253         3    ;  uncertainty k = 0.156317
        17        19        20        21     9      180.000000        1.969098         4    ;  uncertainty k = 0.309359
        17        19        20        48     9        0.000000        0.182268         1    ;  uncertainty k = 0.380989
        17        19        20        48     9      180.000000        8.498732         2    ;  uncertainty k = 0.471621
        17        19        20        48     9        0.000000        0.865881         3    ;  uncertainty k = 0.277153
        17        19        20        48     9      180.000000        1.332387         4    ;  uncertainty k = 0.250172
        17        19        25        24     9        0.000000        0.167455         1    ;  uncertainty k = 0.269450
        17        19        25        24     9      180.000000        6.660335         2    ;  uncertainty k = 0.345520
        17        19        25        24     9        0.000000        1.342711         3    ;  uncertainty k = 0.244017
        17        19        25        24     9      180.000000        1.733001         4    ;  uncertainty k = 0.184084
        17        19        25        26     9        0.000000       -0.216175         1    ;  uncertainty k = 0.991639
        17        19        25        26     9      180.000000        9.831957         2    ;  uncertainty k = 0.596062
        17        19        25        26     9        0.000000        1.357914         3    ;  uncertainty k = 0.464925
        17        19        25        26     9      180.000000        1.242249         4    ;  uncertainty k = 0.394350
        18        17        19        20     9        0.000000       -1.868476         1    ;  uncertainty k = 0.419927
        18        17        19        20     9      180.000000        4.493571         2    ;  uncertainty k = 0.434465
        18        17        19        20     9        0.000000        0.565839         3    ;  uncertainty k = 0.162426
        18        17        19        20     9      180.000000        0.364348         4    ;  uncertainty k = 0.131037
        18        17        19        25     9        0.000000       -5.104410         1    ;  uncertainty k = 1.242486
        18        17        19        25     9      180.000000        5.786237         2    ;  uncertainty k = 0.515685
        18        17        19        25     9        0.000000        0.470447         3    ;  uncertainty k = 0.400845
        18        17        19        25     9      180.000000        0.523247         4    ;  uncertainty k = 0.252967
        19        20        21        22     9        0.000000       -0.073837         1    ;  uncertainty k = 0.307379
        19        20        21        22     9      180.000000       13.509615         2    ;  uncertainty k = 0.362466
        19        20        21        22     9        0.000000       -0.752157         3    ;  uncertainty k = 0.271360
        19        20        21        22     9      180.000000        0.863951         4    ;  uncertainty k = 0.192967
        19        20        21        49     9        0.000000        0.047040         1    ;  uncertainty k = 0.110601
        19        20        21        49     9      180.000000        8.003049         2    ;  uncertainty k = 0.517480
        19        20        21        49     9        0.000000        1.238617         3    ;  uncertainty k = 0.287812
        19        20        21        49     9      180.000000        1.776675         4    ;  uncertainty k = 0.192302
        19        25        24        22     9        0.000000       -0.089921         1    ;  uncertainty k = 0.196756
        19        25        24        22     9      180.000000        9.143090         2    ;  uncertainty k = 0.613449
        19        25        24        22     9        0.000000        0.302875         3    ;  uncertainty k = 0.237650
        19        25        24        22     9      180.000000        1.315551         4    ;  uncertainty k = 0.354159
        19        25        24        50     9        0.000000        0.045287         1    ;  uncertainty k = 0.222268
        19        25        24        50     9      180.000000        6.332690         2    ;  uncertainty k = 0.341280
        19        25        24        50     9        0.000000        1.170933         3    ;  uncertainty k = 0.162207
        19        25        24        50     9      180.000000        1.588796         4    ;  uncertainty k = 0.243594
        19        25        26        27     9        0.000000       -0.766571         1    ;  uncertainty k = 1.038318
        19        25        26        27     9      180.000000        4.138534         2    ;  uncertainty k = 0.100678
        19        25        26        27     9        0.000000        0.688536         3    ;  uncertainty k = 0.280499
        19        25        26        27     9      180.000000       -0.085703         4    ;  uncertainty k = 0.161325
        19        25        26        30     9        0.000000       -0.766571         1    ;  uncertainty k = 1.038318
        19        25        26        30     9      180.000000        4.138534         2    ;  uncertainty k = 0.100678
        19        25        26        30     9        0.000000        0.688536         3    ;  uncertainty k = 0.280499
        19        25        26        30     9      180.000000       -0.085703         4    ;  uncertainty k = 0.161325
        20        19        25        24     9        0.000000       -0.764494         1    ;  uncertainty k = 0.663540
        20        19        25        24     9      180.000000        6.808671         2    ;  uncertainty k = 0.752476
        20        19        25        24     9        0.000000        0.136648         3    ;  uncertainty k = 0.339811
        20        19        25        24     9      180.000000        1.212180         4    ;  uncertainty k = 0.194449
        20        19        25        26     9        0.000000        0.520034         1    ;  uncertainty k = 0.408176
        20        19        25        26     9      180.000000        9.583564         2    ;  uncertainty k = 0.431932
        20        19        25        26     9        0.000000        1.258350         3    ;  uncertainty k = 0.210182
        20        19        25        26     9      180.000000        1.497967         4    ;  uncertainty k = 0.202611
        20        21        22        23     9        0.000000       -0.038291         1    ;  uncertainty k = 0.194268
        20        21        22        23     9      180.000000       11.934191         2    ;  uncertainty k = 0.664770
        20        21        22        23     9        0.000000        1.454969         3    ;  uncertainty k = 0.239888
        20        21        22        23     9      180.000000        1.538750         4    ;  uncertainty k = 0.270203
        20        21        22        24     9        0.000000        0.112091         1    ;  uncertainty k = 0.218930
        20        21        22        24     9      180.000000        9.129690         2    ;  uncertainty k = 0.341452
        20        21        22        24     9        0.000000       -0.144749         3    ;  uncertainty k = 0.358095
        20        21        22        24     9      180.000000        1.100850         4    ;  uncertainty k = 0.334245
        21        20        19        25     9        0.000000       -0.243786         1    ;  uncertainty k = 0.231675
        21        20        19        25     9      180.000000       10.331698         2    ;  uncertainty k = 0.328907
        21        20        19        25     9        0.000000        0.161589         3    ;  uncertainty k = 0.248341
        21        20        19        25     9      180.000000        1.271822         4    ;  uncertainty k = 0.333398
        21        22        24        25     9        0.000000       -0.124529         1    ;  uncertainty k = 0.369437
        21        22        24        25     9      180.000000        8.476218         2    ;  uncertainty k = 0.489809
        21        22        24        25     9        0.000000        0.003655         3    ;  uncertainty k = 0.516773
        21        22        24        25     9      180.000000        1.300846         4    ;  uncertainty k = 0.372959
        21        22        24        50     9        0.000000        0.063783         1    ;  uncertainty k = 0.267050
        21        22        24        50     9      180.000000        5.855775         2    ;  uncertainty k = 0.554605
        21        22        24        50     9        0.000000        1.240314         3    ;  uncertainty k = 0.316610
        21        22        24        50     9      180.000000        1.633788         4    ;  uncertainty k = 0.210681
        22        21        20        48     9        0.000000       -0.148281         1    ;  uncertainty k = 0.165364
        22        21        20        48     9      180.000000        7.998504         2    ;  uncertainty k = 0.335973
        22        21        20        48     9        0.000000        1.167783         3    ;  uncertainty k = 0.294912
        22        21        20        48     9      180.000000        1.695790         4    ;  uncertainty k = 0.105426
        22        24        25        26     9        0.000000        0.358364         1    ;  uncertainty k = 0.343357
        22        24        25        26     9      180.000000       11.036402         2    ;  uncertainty k = 0.229414
        22        24        25        26     9        0.000000        1.121467         3    ;  uncertainty k = 0.300616
        22        24        25        26     9      180.000000        1.621083         4    ;  uncertainty k = 0.176870
        23        22        21        49     9        0.000000       -0.280862         1    ;  uncertainty k = 0.320753
        23        22        21        49     9      180.000000        8.987910         2    ;  uncertainty k = 0.179331
        23        22        21        49     9        0.000000        0.761304         3    ;  uncertainty k = 0.227674
        23        22        21        49     9      180.000000        0.849602         4    ;  uncertainty k = 0.150094
        23        22        24        25     9        0.000000        0.072159         1    ;  uncertainty k = 0.145330
        23        22        24        25     9      180.000000       12.454937         2    ;  uncertainty k = 0.342054
        23        22        24        25     9        0.000000        1.405540         3    ;  uncertainty k = 0.268930
        23        22        24        25     9      180.000000        1.393702         4    ;  uncertainty k = 0.222923
        23        22        24        50     9        0.000000       -0.395393         1    ;  uncertainty k = 0.301143
        23        22        24        50     9      180.000000        8.968272         2    ;  uncertainty k = 0.412536
        23        22        24        50     9        0.000000        0.810184         3    ;  uncertainty k = 0.227181
        23        22        24        50     9      180.000000        1.012698         4    ;  uncertainty k = 0.247802
        24        22        21        49     9        0.000000       -0.019717         1    ;  uncertainty k = 0.110749
        24        22        21        49     9      180.000000        5.857995         2    ;  uncertainty k = 0.639760
        24        22        21        49     9        0.000000        1.252315         3    ;  uncertainty k = 0.288898
        24        22        21        49     9      180.000000        1.486902         4    ;  uncertainty k = 0.113662
        24        25        26        27     9        0.000000        1.781326         1    ;  uncertainty k = 0.645653
        24        25        26        27     9      180.000000        4.302350         2    ;  uncertainty k = 0.344117
        24        25        26        27     9        0.000000        0.390983         3    ;  uncertainty k = 0.234713
        24        25        26        27     9      180.000000        0.079304         4    ;  uncertainty k = 0.118563
        24        25        26        30     9        0.000000        1.781326         1    ;  uncertainty k = 0.645653
        24        25        26        30     9      180.000000        4.302350         2    ;  uncertainty k = 0.344117
        24        25        26        30     9        0.000000        0.390983         3    ;  uncertainty k = 0.234713
        24        25        26        30     9      180.000000        0.079304         4    ;  uncertainty k = 0.118563
        25        19        20        48     9        0.000000        0.046523         1    ;  uncertainty k = 0.363688
        25        19        20        48     9      180.000000        7.717520         2    ;  uncertainty k = 0.455713
        25        19        20        48     9        0.000000        1.162333         3    ;  uncertainty k = 0.091398
        25        19        20        48     9      180.000000        1.673944         4    ;  uncertainty k = 0.178610
        25        26        27        28     9        0.000000        0.896214         1    ;  uncertainty k = 2.349755
        25        26        27        28     9      180.000000       14.277864         2    ;  uncertainty k = 0.397559
        25        26        27        28     9        0.000000        1.375951         3    ;  uncertainty k = 0.462893
        25        26        27        28     9      180.000000        0.069184         4    ;  uncertainty k = 0.230534
        25        26        30        29     9        0.000000        0.896214         1    ;  uncertainty k = 2.349755
        25        26        30        29     9      180.000000       14.277864         2    ;  uncertainty k = 0.397559
        25        26        30        29     9        0.000000        1.375951         3    ;  uncertainty k = 0.462893
        25        26        30        29     9      180.000000        0.069184         4    ;  uncertainty k = 0.230534
        26        25        24        50     9        0.000000        0.172167         1    ;  uncertainty k = 0.440498
        26        25        24        50     9      180.000000        8.360763         2    ;  uncertainty k = 0.291844
        26        25        24        50     9        0.000000        0.806776         3    ;  uncertainty k = 0.183206
        26        25        24        50     9      180.000000        1.360592         4    ;  uncertainty k = 0.153921
        26        27        28        29     9        0.000000        0.006603         1    ;  uncertainty k = 0.517140
        26        27        28        29     9      180.000000       24.374117         2    ;  uncertainty k = 0.361663
        26        27        28        29     9        0.000000       -9.727340         3    ;  uncertainty k = 1.851481
        26        27        28        29     9      180.000000        2.422846         4    ;  uncertainty k = 0.664593
        26        27        28        51     9        0.000000        0.254751         1    ;  uncertainty k = 0.728272
        26        27        28        51     9      180.000000       22.064839         2    ;  uncertainty k = 0.487999
        26        27        28        51     9        0.000000        1.442443         3    ;  uncertainty k = 0.415926
        26        27        28        51     9      180.000000        1.213038         4    ;  uncertainty k = 0.607869
        26        30        29        28     9        0.000000        0.006603         1    ;  uncertainty k = 0.517140
        26        30        29        28     9      180.000000       24.374117         2    ;  uncertainty k = 0.361663
        26        30        29        28     9        0.000000       -9.727340         3    ;  uncertainty k = 1.851481
        26        30        29        28     9      180.000000        2.422846         4    ;  uncertainty k = 0.664593
        26        30        29        52     9        0.000000        0.254751         1    ;  uncertainty k = 0.728272
        26        30        29        52     9      180.000000       22.064839         2    ;  uncertainty k = 0.487999
        26        30        29        52     9        0.000000        1.442443         3    ;  uncertainty k = 0.415926
        26        30        29        52     9      180.000000        1.213038         4    ;  uncertainty k = 0.607869
        27        26        30        29     9        0.000000       -0.802464         1    ;  uncertainty k = 0.759882
        27        26        30        29     9      180.000000       22.047431         2    ;  uncertainty k = 0.263277
        27        26        30        29     9        0.000000       -8.290796         3    ;  uncertainty k = 1.319798
        27        26        30        29     9      180.000000        1.301457         4    ;  uncertainty k = 0.598466
        27        28        29        30     9        0.000000       -0.480158         1    ;  uncertainty k = 0.926462
        27        28        29        30     9      180.000000       16.735216         2    ;  uncertainty k = 1.309662
        27        28        29        30     9        0.000000      -12.155219         3    ;  uncertainty k = 1.939945
        27        28        29        30     9      180.000000        1.991293         4    ;  uncertainty k = 0.750423
        27        28        29        52     9        0.000000        0.154897         1    ;  uncertainty k = 0.970262
        27        28        29        52     9      180.000000       11.842300         2    ;  uncertainty k = 0.614370
        27        28        29        52     9        0.000000        0.922189         3    ;  uncertainty k = 0.757887
        27        28        29        52     9      180.000000        0.630945         4    ;  uncertainty k = 0.172002
        28        27        26        30     9        0.000000       -0.802464         1    ;  uncertainty k = 0.759882
        28        27        26        30     9      180.000000       22.047431         2    ;  uncertainty k = 0.263277
        28        27        26        30     9        0.000000       -8.290796         3    ;  uncertainty k = 1.319798
        28        27        26        30     9      180.000000        1.301457         4    ;  uncertainty k = 0.598466
        30        29        28        51     9        0.000000        0.154897         1    ;  uncertainty k = 0.970262
        30        29        28        51     9      180.000000       11.842300         2    ;  uncertainty k = 0.614370
        30        29        28        51     9        0.000000        0.922189         3    ;  uncertainty k = 0.757887
        30        29        28        51     9      180.000000        0.630945         4    ;  uncertainty k = 0.172002
        38        10        11        40     9        0.000000        0.359872         1    ;  uncertainty k = 0.316166
        38        10        11        40     9      180.000000       -0.360044         2    ;  uncertainty k = 0.197279
        38        10        11        40     9        0.000000        0.364903         3    ;  uncertainty k = 0.128583
        38        10        11        40     9      180.000000       -0.036803         4    ;  uncertainty k = 0.081429
        39        10        11        40     9        0.000000        0.359872         1    ;  uncertainty k = 0.316166
        39        10        11        40     9      180.000000       -0.360044         2    ;  uncertainty k = 0.197279
        39        10        11        40     9        0.000000        0.364903         3    ;  uncertainty k = 0.128583
        39        10        11        40     9      180.000000       -0.036803         4    ;  uncertainty k = 0.081429
        40        11        12        41     9        0.000000        0.423998         1    ;  uncertainty k = 0.297943
        40        11        12        41     9      180.000000       -0.322771         2    ;  uncertainty k = 0.253711
        40        11        12        41     9        0.000000        0.343158         3    ;  uncertainty k = 0.128710
        40        11        12        41     9      180.000000       -0.041305         4    ;  uncertainty k = 0.061986
        40        11        12        42     9        0.000000        0.423998         1    ;  uncertainty k = 0.297943
        40        11        12        42     9      180.000000       -0.322771         2    ;  uncertainty k = 0.253711
        40        11        12        42     9        0.000000        0.343158         3    ;  uncertainty k = 0.128710
        40        11        12        42     9      180.000000       -0.041305         4    ;  uncertainty k = 0.061986
        40        11        15        45     9        0.000000        3.534566         1    ;  uncertainty k = 1.183407
        40        11        15        45     9      180.000000       -0.219654         2    ;  uncertainty k = 0.641097
        40        11        15        45     9        0.000000        0.578188         3    ;  uncertainty k = 0.579178
        40        11        15        45     9      180.000000        0.212498         4    ;  uncertainty k = 0.291708
        43        14        15        45     9        0.000000        0.424000         1    ;  uncertainty k = 0.297943
        43        14        15        45     9      180.000000       -0.322771         2    ;  uncertainty k = 0.253710
        43        14        15        45     9        0.000000        0.343158         3    ;  uncertainty k = 0.128710
        43        14        15        45     9      180.000000       -0.041305         4    ;  uncertainty k = 0.061986
        44        14        15        45     9        0.000000        0.424000         1    ;  uncertainty k = 0.297943
        44        14        15        45     9      180.000000       -0.322771         2    ;  uncertainty k = 0.253710
        44        14        15        45     9        0.000000        0.343158         3    ;  uncertainty k = 0.128710
        44        14        15        45     9      180.000000       -0.041305         4    ;  uncertainty k = 0.061986
        45        15        16        46     9        0.000000        0.359873         1    ;  uncertainty k = 0.316165
        45        15        16        46     9      180.000000       -0.360044         2    ;  uncertainty k = 0.197281
        45        15        16        46     9        0.000000        0.364903         3    ;  uncertainty k = 0.128582
        45        15        16        46     9      180.000000       -0.036803         4    ;  uncertainty k = 0.081429
        45        15        16        47     9        0.000000        0.359873         1    ;  uncertainty k = 0.316165
        45        15        16        47     9      180.000000       -0.360044         2    ;  uncertainty k = 0.197281
        45        15        16        47     9        0.000000        0.364903         3    ;  uncertainty k = 0.128582
        45        15        16        47     9      180.000000       -0.036803         4    ;  uncertainty k = 0.081429
        48        20        21        49     9        0.000000       -0.206740         1    ;  uncertainty k = 0.217231
        48        20        21        49     9      180.000000        7.707966         2    ;  uncertainty k = 0.335053
        48        20        21        49     9        0.000000       -0.343256         3    ;  uncertainty k = 0.175686
        48        20        21        49     9      180.000000        0.171798         4    ;  uncertainty k = 0.147203
        51        28        29        52     9        0.000000       -0.942648         1    ;  uncertainty k = 1.117582
        51        28        29        52     9      180.000000        4.272735         2    ;  uncertainty k = 0.760818
        51        28        29        52     9        0.000000        1.314863         3    ;  uncertainty k = 0.353594
        51        28        29        52     9      180.000000        0.150448         4    ;  uncertainty k = 0.159865

[ dihedrals ] ; impropers
;       ai        aj        ak        al funct           phase               k        pn
         2         1         3         8     4      180.000000       31.911121         2    ;  uncertainty k = 0.074029
         2         3         8         1     4      180.000000       31.911121         2    ;  uncertainty k = 0.074029
         2         8         1         3     4      180.000000       31.911121         2    ;  uncertainty k = 0.074029
         3         2         4        34     4      180.000000        1.149575         2    ;  uncertainty k = 0.472328
         3         4        34         2     4      180.000000        1.149575         2    ;  uncertainty k = 0.472328
         3        34         2         4     4      180.000000        1.149575         2    ;  uncertainty k = 0.472328
         4         3         5         6     4      180.000000       31.911121         2    ;  uncertainty k = 0.074029
         4         5         6         3     4      180.000000       31.911121         2    ;  uncertainty k = 0.074029
         4         6         3         5     4      180.000000       31.911121         2    ;  uncertainty k = 0.074029
         7         6         8         9     4      180.000000       42.641368         2    ;  uncertainty k = 0.061085
         7         8         9         6     4      180.000000       42.641368         2    ;  uncertainty k = 0.061085
         7         9         6         8     4      180.000000       42.641368         2    ;  uncertainty k = 0.061085
         9         7        10        16     4      180.000000        0.056062         2    ;  uncertainty k = 0.081767
         9        10        16         7     4      180.000000        0.056062         2    ;  uncertainty k = 0.081767
         9        16         7        10     4      180.000000        0.056062         2    ;  uncertainty k = 0.081767
        17        13        18        19     4      180.000000       50.801935         2    ;  uncertainty k = 0.064606
        17        18        19        13     4      180.000000       50.801935         2    ;  uncertainty k = 0.064606
        17        19        13        18     4      180.000000       50.801935         2    ;  uncertainty k = 0.064606
        19        17        20        25     4      180.000000       10.342785         2    ;  uncertainty k = 0.211050
        19        20        25        17     4      180.000000       10.342785         2    ;  uncertainty k = 0.211050
        19        25        17        20     4      180.000000       10.342785         2    ;  uncertainty k = 0.211050
        20        19        21        48     4      180.000000        4.610069         2    ;  uncertainty k = 0.070920
        20        21        48        19     4      180.000000        4.610069         2    ;  uncertainty k = 0.070920
        20        48        19        21     4      180.000000        4.610069         2    ;  uncertainty k = 0.070920
        21        20        22        49     4      180.000000        2.373637         2    ;  uncertainty k = 0.182203
        21        22        49        20     4      180.000000        2.373637         2    ;  uncertainty k = 0.182203
        21        49        20        22     4      180.000000        2.373637         2    ;  uncertainty k = 0.182203
        22        21        23        24     4      180.000000       17.465517         2    ;  uncertainty k = 0.057052
        22        23        24        21     4      180.000000       17.465517         2    ;  uncertainty k = 0.057052
        22        24        21        23     4      180.000000       17.465517         2    ;  uncertainty k = 0.057052
        24        22        25        50     4      180.000000        2.138146         2    ;  uncertainty k = 0.261922
        24        25        50        22     4      180.000000        2.138146         2    ;  uncertainty k = 0.261922
        24        50        22        25     4      180.000000        2.138146         2    ;  uncertainty k = 0.261922
        25        19        24        26     4      180.000000       12.841369         2    ;  uncertainty k = 0.099420
        25        24        26        19     4      180.000000       12.841369         2    ;  uncertainty k = 0.099420
        25        26        19        24     4      180.000000       12.841369         2    ;  uncertainty k = 0.099420
        28        27        29        51     4      180.000000        0.414726         2    ;  uncertainty k = 0.408832
        28        29        51        27     4      180.000000        0.414726         2    ;  uncertainty k = 0.408832
        28        51        27        29     4      180.000000        0.414726         2    ;  uncertainty k = 0.408832
        29        28        30        52     4      180.000000        0.414726         2    ;  uncertainty k = 0.408832
        29        30        52        28     4      180.000000        0.414726         2    ;  uncertainty k = 0.408832
        29        52        28        30     4      180.000000        0.414726         2    ;  uncertainty k = 0.408832

[ pairs ]
;       ai        aj funct
         1         4     1
         1         7     1
         1        34     1
         2         5     1
         2         6     1
         2         9     1
         3         7     1
         3        31     1
         3        32     1
         3        33     1
         3        35     1
         3        36     1
         3        37     1
         4         8     1
         4         9     1
         5         7     1
         5        34     1
         6        10     1
         6        16     1
         6        34     1
         6        35     1
         6        36     1
         6        37     1
         7        11     1
         7        15     1
         7        38     1
         7        39     1
         7        46     1
         7        47     1
         8        10     1
         8        16     1
         8        31     1
         8        32     1
         8        33     1
         8        34     1
         9        12     1
         9        14     1
         9        40     1
         9        45     1
        10        13     1
        10        14     1
        10        41     1
        10        42     1
        10        45     1
        10        46     1
        10        47     1
        11        17     1
        11        43     1
        11        44     1
        11        46     1
        11        47     1
        12        16     1
        12        18     1
        12        19     1
        12        38     1
        12        39     1
        12        43     1
        12        44     1
        12        45     1
        13        16     1
        13        20     1
        13        25     1
        13        40     1
        13        45     1
        14        18     1
        14        19     1
        14        40     1
        14        41     1
        14        42     1
        14        46     1
        14        47     1
        15        17     1
        15        38     1
        15        39     1
        15        41     1
        15        42     1
        16        38     1
        16        39     1
        16        40     1
        16        43     1
        16        44     1
        17        21     1
        17        24     1
        17        26     1
        17        41     1
        17        42     1
        17        43     1
        17        44     1
        17        48     1
        18        20     1
        18        25     1
        19        22     1
        19        27     1
        19        30     1
        19        49     1
        19        50     1
        20        23     1
        20        24     1
        20        26     1
        21        25     1
        21        50     1
        22        26     1
        22        48     1
        23        25     1
        23        49     1
        23        50     1
        24        27     1
        24        30     1
        24        49     1
        25        28     1
        25        29     1
        25        48     1
        26        50     1
        26        51     1
        26        52     1
        27        52     1
        30        51     1
        38        40     1
        39        40     1
        40        41     1
        40        42     1
        40        45     1
        43        45     1
        44        45     1
        45        46     1
        45        47     1
        48        49     1
        51        52     1
