; ITP file created by ByteFF-joint-25, 2025-07-14 11:28:41.667764

[ atomtypes ]
;name           bonded.type        at.num        mass        charge   ptype           sigma         epsilon
 c0bf                                   6      0.0000       0.00000       A     3.39773e-01     4.50930e-01    ;  uncertainty sigma = 0.000007, epsilon = 0.000592
 c1bf                                   6      0.0000       0.00000       A     3.31511e-01     4.13145e-01    ;  uncertainty sigma = 0.000011, epsilon = 0.000579
 c2bf                                   6      0.0000       0.00000       A     3.31523e-01     4.13243e-01    ;  uncertainty sigma = 0.000013, epsilon = 0.000737
 c3bf                                   6      0.0000       0.00000       A     3.31511e-01     4.13145e-01    ;  uncertainty sigma = 0.000011, epsilon = 0.000579
 c4bf                                   6      0.0000       0.00000       A     3.39773e-01     4.50930e-01    ;  uncertainty sigma = 0.000007, epsilon = 0.000592
 n5bf                                   7      0.0000       0.00000       A     3.38407e-01     3.93685e-01    ;  uncertainty sigma = 0.000013, epsilon = 0.000791
 c6bf                                   6      0.0000       0.00000       A     3.31545e-01     4.13196e-01    ;  uncertainty sigma = 0.000018, epsilon = 0.000667
 n7bf                                   7      0.0000       0.00000       A     3.38407e-01     3.93685e-01    ;  uncertainty sigma = 0.000013, epsilon = 0.000791
 n8bf                                   7      0.0000       0.00000       A     3.18950e-01     8.99076e-01    ;  uncertainty sigma = 0.000052, epsilon = 0.003577
 c9bf                                   6      0.0000       0.00000       A     3.39774e-01     4.50953e-01    ;  uncertainty sigma = 0.000012, epsilon = 0.001229
 c10bf                                  6      0.0000       0.00000       A     3.39776e-01     4.51373e-01    ;  uncertainty sigma = 0.000009, epsilon = 0.000969
 c11bf                                  6      0.0000       0.00000       A     3.39784e-01     4.51219e-01    ;  uncertainty sigma = 0.000006, epsilon = 0.000696
 n12bf                                  7      0.0000       0.00000       A     3.18073e-01     6.84302e-01    ;  uncertainty sigma = 0.000016, epsilon = 0.001059
 c13bf                                  6      0.0000       0.00000       A     3.39784e-01     4.51219e-01    ;  uncertainty sigma = 0.000006, epsilon = 0.000696
 c14bf                                  6      0.0000       0.00000       A     3.39776e-01     4.51373e-01    ;  uncertainty sigma = 0.000009, epsilon = 0.000969
 c15bf                                  6      0.0000       0.00000       A     3.39774e-01     4.50953e-01    ;  uncertainty sigma = 0.000012, epsilon = 0.001229
 c16bf                                  6      0.0000       0.00000       A     3.31532e-01     4.13213e-01    ;  uncertainty sigma = 0.000027, epsilon = 0.001982
 o17bf                                  8      0.0000       0.00000       A     3.04845e-01     6.12188e-01    ;  uncertainty sigma = 0.000025, epsilon = 0.000919
 c18bf                                  6      0.0000       0.00000       A     3.31528e-01     4.12880e-01    ;  uncertainty sigma = 0.000022, epsilon = 0.001593
 c19bf                                  6      0.0000       0.00000       A     3.31538e-01     4.13263e-01    ;  uncertainty sigma = 0.000013, epsilon = 0.000624
 c20bf                                  6      0.0000       0.00000       A     3.31513e-01     4.13348e-01    ;  uncertainty sigma = 0.000006, epsilon = 0.000729
 c21bf                                  6      0.0000       0.00000       A     3.31524e-01     4.13181e-01    ;  uncertainty sigma = 0.000008, epsilon = 0.000484
 n22bf                                  7      0.0000       0.00000       A     3.38409e-01     3.93145e-01    ;  uncertainty sigma = 0.000008, epsilon = 0.001313
 c23bf                                  6      0.0000       0.00000       A     3.31472e-01     4.12878e-01    ;  uncertainty sigma = 0.000030, epsilon = 0.001748
 n24bf                                  7      0.0000       0.00000       A     3.20431e-01     8.56017e-01    ;  uncertainty sigma = 0.000077, epsilon = 0.003382
 n25bf                                  7      0.0000       0.00000       A     3.38429e-01     3.93818e-01    ;  uncertainty sigma = 0.000019, epsilon = 0.000815
 c26bf                                  6      0.0000       0.00000       A     3.31538e-01     4.13492e-01    ;  uncertainty sigma = 0.000007, epsilon = 0.000783
 c27bf                                  6      0.0000       0.00000       A     3.31538e-01     4.13492e-01    ;  uncertainty sigma = 0.000007, epsilon = 0.000783
 n28bf                                  7      0.0000       0.00000       A     3.38429e-01     3.93818e-01    ;  uncertainty sigma = 0.000019, epsilon = 0.000815
 h29bf                                  1      0.0000       0.00000       A     2.60034e-01     8.66332e-02    ;  uncertainty sigma = 0.000007, epsilon = 0.000537
 h30bf                                  1      0.0000       0.00000       A     2.60034e-01     8.66332e-02    ;  uncertainty sigma = 0.000007, epsilon = 0.000537
 h31bf                                  1      0.0000       0.00000       A     2.60034e-01     8.66332e-02    ;  uncertainty sigma = 0.000007, epsilon = 0.000537
 h32bf                                  1      0.0000       0.00000       A     2.62580e-01     6.71311e-02    ;  uncertainty sigma = 0.000016, epsilon = 0.000304
 h33bf                                  1      0.0000       0.00000       A     2.60034e-01     8.66332e-02    ;  uncertainty sigma = 0.000007, epsilon = 0.000537
 h34bf                                  1      0.0000       0.00000       A     2.60034e-01     8.66332e-02    ;  uncertainty sigma = 0.000007, epsilon = 0.000537
 h35bf                                  1      0.0000       0.00000       A     2.60034e-01     8.66332e-02    ;  uncertainty sigma = 0.000007, epsilon = 0.000537
 h36bf                                  1      0.0000       0.00000       A     2.42199e-01     8.66324e-02    ;  uncertainty sigma = 0.000024, epsilon = 0.001250
 h37bf                                  1      0.0000       0.00000       A     2.42199e-01     8.66324e-02    ;  uncertainty sigma = 0.000024, epsilon = 0.001250
 h38bf                                  1      0.0000       0.00000       A     2.59994e-01     8.68892e-02    ;  uncertainty sigma = 0.000026, epsilon = 0.000553
 h39bf                                  1      0.0000       0.00000       A     2.42194e-01     8.66543e-02    ;  uncertainty sigma = 0.000021, epsilon = 0.000863
 h40bf                                  1      0.0000       0.00000       A     2.42194e-01     8.66543e-02    ;  uncertainty sigma = 0.000021, epsilon = 0.000863
 h41bf                                  1      0.0000       0.00000       A     2.42194e-01     8.66545e-02    ;  uncertainty sigma = 0.000021, epsilon = 0.000863
 h42bf                                  1      0.0000       0.00000       A     2.42194e-01     8.66545e-02    ;  uncertainty sigma = 0.000021, epsilon = 0.000863
 h43bf                                  1      0.0000       0.00000       A     2.59994e-01     8.68892e-02    ;  uncertainty sigma = 0.000026, epsilon = 0.000553
 h44bf                                  1      0.0000       0.00000       A     2.42199e-01     8.66324e-02    ;  uncertainty sigma = 0.000024, epsilon = 0.001250
 h45bf                                  1      0.0000       0.00000       A     2.42199e-01     8.66324e-02    ;  uncertainty sigma = 0.000024, epsilon = 0.001250
 h46bf                                  1      0.0000       0.00000       A     2.62548e-01     6.71361e-02    ;  uncertainty sigma = 0.000009, epsilon = 0.000737
 h47bf                                  1      0.0000       0.00000       A     2.62564e-01     6.71128e-02    ;  uncertainty sigma = 0.000012, epsilon = 0.000542
 h48bf                                  1      0.0000       0.00000       A     2.53641e-01     6.70511e-02    ;  uncertainty sigma = 0.000009, epsilon = 0.000430
 h49bf                                  1      0.0000       0.00000       A     2.53604e-01     6.70807e-02    ;  uncertainty sigma = 0.000028, epsilon = 0.000600
 h50bf                                  1      0.0000       0.00000       A     2.53604e-01     6.70806e-02    ;  uncertainty sigma = 0.000028, epsilon = 0.000600

[ moleculetype ]
;name             nrexcl
 MOL                   3

[ atoms ]
;       nr            type      resi   res      atom      cgnr      charge          mass ; qtot
         1            c0bf         1   UNL        c0         1    -0.15162       12.0110 ; qtot   -0.152
         2            c1bf         1   UNL        c1         2     0.48649       12.0110 ; qtot    0.335
         3            c2bf         1   UNL        c2         3    -0.41183       12.0110 ; qtot   -0.077
         4            c3bf         1   UNL        c3         4     0.48649       12.0110 ; qtot    0.410
         5            c4bf         1   UNL        c4         5    -0.15162       12.0110 ; qtot    0.258
         6            n5bf         1   UNL        n5         6    -0.77862       14.0070 ; qtot   -0.521
         7            c6bf         1   UNL        c6         7     0.90706       12.0110 ; qtot    0.386
         8            n7bf         1   UNL        n7         8    -0.77862       14.0070 ; qtot   -0.392
         9            n8bf         1   UNL        n8         9    -0.79085       14.0070 ; qtot   -1.183
        10            c9bf         1   UNL        c9        10     0.23390       12.0110 ; qtot   -0.949
        11           c10bf         1   UNL       c10        11    -0.09743       12.0110 ; qtot   -1.047
        12           c11bf         1   UNL       c11        12     0.10776       12.0110 ; qtot   -0.939
        13           n12bf         1   UNL       n12        13    -0.46740       14.0070 ; qtot   -1.406
        14           c13bf         1   UNL       c13        14     0.10776       12.0110 ; qtot   -1.299
        15           c14bf         1   UNL       c14        15    -0.09743       12.0110 ; qtot   -1.396
        16           c15bf         1   UNL       c15        16     0.23390       12.0110 ; qtot   -1.162
        17           c16bf         1   UNL       c16        17     0.70595       12.0110 ; qtot   -0.456
        18           o17bf         1   UNL       o17        18    -0.58886       15.9990 ; qtot   -1.045
        19           c18bf         1   UNL       c18        19    -0.24090       12.0110 ; qtot   -1.286
        20           c19bf         1   UNL       c19        20    -0.04815       12.0110 ; qtot   -1.334
        21           c20bf         1   UNL       c20        21    -0.25317       12.0110 ; qtot   -1.587
        22           c21bf         1   UNL       c21        22     0.43442       12.0110 ; qtot   -1.153
        23           n22bf         1   UNL       n22        23    -0.66549       14.0070 ; qtot   -1.818
        24           c23bf         1   UNL       c23        24     0.54251       12.0110 ; qtot   -1.276
        25           n24bf         1   UNL       n24        25     0.20037       14.0070 ; qtot   -1.075
        26           n25bf         1   UNL       n25        26    -0.45685       14.0070 ; qtot   -1.532
        27           c26bf         1   UNL       c26        27     0.20844       12.0110 ; qtot   -1.324
        28           c27bf         1   UNL       c27        28     0.20844       12.0110 ; qtot   -1.115
        29           n28bf         1   UNL       n28        29    -0.45685       14.0070 ; qtot   -1.572
        30           h29bf         1   UNL       h29        30     0.05868        1.0080 ; qtot   -1.514
        31           h30bf         1   UNL       h30        31     0.05868        1.0080 ; qtot   -1.455
        32           h31bf         1   UNL       h31        32     0.05868        1.0080 ; qtot   -1.396
        33           h32bf         1   UNL       h32        33     0.15114        1.0080 ; qtot   -1.245
        34           h33bf         1   UNL       h33        34     0.05868        1.0080 ; qtot   -1.186
        35           h34bf         1   UNL       h34        35     0.05868        1.0080 ; qtot   -1.128
        36           h35bf         1   UNL       h35        36     0.05868        1.0080 ; qtot   -1.069
        37           h36bf         1   UNL       h36        37     0.05891        1.0080 ; qtot   -1.010
        38           h37bf         1   UNL       h37        38     0.05891        1.0080 ; qtot   -0.951
        39           h38bf         1   UNL       h38        39     0.07237        1.0080 ; qtot   -0.879
        40           h39bf         1   UNL       h39        40     0.05981        1.0080 ; qtot   -0.819
        41           h40bf         1   UNL       h40        41     0.05981        1.0080 ; qtot   -0.759
        42           h41bf         1   UNL       h41        42     0.05981        1.0080 ; qtot   -0.699
        43           h42bf         1   UNL       h42        43     0.05981        1.0080 ; qtot   -0.640
        44           h43bf         1   UNL       h43        44     0.07237        1.0080 ; qtot   -0.567
        45           h44bf         1   UNL       h44        45     0.05891        1.0080 ; qtot   -0.508
        46           h45bf         1   UNL       h45        46     0.05891        1.0080 ; qtot   -0.449
        47           h46bf         1   UNL       h46        47     0.15599        1.0080 ; qtot   -0.293
        48           h47bf         1   UNL       h47        48     0.15032        1.0080 ; qtot   -0.143
        49           h48bf         1   UNL       h48        49     0.02855        1.0080 ; qtot   -0.114
        50           h49bf         1   UNL       h49        50     0.05725        1.0080 ; qtot   -0.057
        51           h50bf         1   UNL       h50        51     0.05725        1.0080 ; qtot    0.000

[ bonds ]
;       ai        aj funct               r               k
         1         2     1        0.150631   258312.636768    ;  uncertainty r = 0.000036, k = 5.578436
         1        30     1        0.109444   310537.557666    ;  uncertainty r = 0.000015, k = 1.598088
         1        31     1        0.109444   310537.557666    ;  uncertainty r = 0.000015, k = 1.598088
         1        32     1        0.109444   310537.557666    ;  uncertainty r = 0.000015, k = 1.598088
         2         3     1        0.140287   430446.109863    ;  uncertainty r = 0.000066, k = 4.969217
         2         8     1        0.134238   464612.770313    ;  uncertainty r = 0.000041, k = 6.904087
         3         4     1        0.140287   430446.109863    ;  uncertainty r = 0.000066, k = 4.969217
         3        33     1        0.108737   344393.252734    ;  uncertainty r = 0.000026, k = 3.476286
         4         5     1        0.150631   258312.636768    ;  uncertainty r = 0.000036, k = 5.578436
         4         6     1        0.134238   464612.770313    ;  uncertainty r = 0.000041, k = 6.904087
         5        34     1        0.109444   310537.557666    ;  uncertainty r = 0.000015, k = 1.598088
         5        35     1        0.109444   310537.557666    ;  uncertainty r = 0.000015, k = 1.598088
         5        36     1        0.109444   310537.557666    ;  uncertainty r = 0.000015, k = 1.598088
         6         7     1        0.135351   495763.447070    ;  uncertainty r = 0.000102, k = 13.751618
         7         8     1        0.135351   495763.447070    ;  uncertainty r = 0.000102, k = 13.751618
         7         9     1        0.136652   318374.973145    ;  uncertainty r = 0.000092, k = 21.200785
         9        10     1        0.146381   223708.423486    ;  uncertainty r = 0.000058, k = 14.342670
         9        16     1        0.146381   223708.423486    ;  uncertainty r = 0.000058, k = 14.342768
        10        11     1        0.153378   218045.467334    ;  uncertainty r = 0.000067, k = 7.088220
        10        37     1        0.109551   306518.450781    ;  uncertainty r = 0.000069, k = 2.534282
        10        38     1        0.109551   306518.450781    ;  uncertainty r = 0.000069, k = 2.534282
        11        12     1        0.153480   216617.049121    ;  uncertainty r = 0.000023, k = 7.412723
        11        15     1        0.154451   200722.496875    ;  uncertainty r = 0.000080, k = 20.796785
        11        39     1        0.109350   305021.261133    ;  uncertainty r = 0.000029, k = 3.829702
        12        13     1        0.147082   239620.494189    ;  uncertainty r = 0.000056, k = 14.684888
        12        40     1        0.109439   307434.875488    ;  uncertainty r = 0.000026, k = 1.171544
        12        41     1        0.109439   307434.875488    ;  uncertainty r = 0.000026, k = 1.171544
        13        14     1        0.147082   239620.494189    ;  uncertainty r = 0.000056, k = 14.684832
        13        17     1        0.135271   327635.750488    ;  uncertainty r = 0.000049, k = 12.255319
        14        15     1        0.153480   216617.049121    ;  uncertainty r = 0.000023, k = 7.412681
        14        42     1        0.109439   307434.875488    ;  uncertainty r = 0.000026, k = 1.171521
        14        43     1        0.109439   307434.875488    ;  uncertainty r = 0.000026, k = 1.171521
        15        16     1        0.153378   218045.441797    ;  uncertainty r = 0.000067, k = 7.088228
        15        44     1        0.109350   305021.261133    ;  uncertainty r = 0.000029, k = 3.829660
        16        45     1        0.109551   306518.450781    ;  uncertainty r = 0.000069, k = 2.534287
        16        46     1        0.109551   306518.450781    ;  uncertainty r = 0.000069, k = 2.534287
        17        18     1        0.123655   758427.070996    ;  uncertainty r = 0.000095, k = 10.625917
        17        19     1        0.150952   302831.249707    ;  uncertainty r = 0.000123, k = 24.732592
        19        20     1        0.139501   372182.862842    ;  uncertainty r = 0.000090, k = 14.420393
        19        24     1        0.140014   343694.966016    ;  uncertainty r = 0.000266, k = 18.343728
        20        21     1        0.139339   384367.869043    ;  uncertainty r = 0.000051, k = 10.111712
        20        47     1        0.108597   328027.106689    ;  uncertainty r = 0.000034, k = 1.778441
        21        22     1        0.139652   380645.401221    ;  uncertainty r = 0.000065, k = 5.161307
        21        48     1        0.108822   336984.579785    ;  uncertainty r = 0.000022, k = 2.532002
        22        23     1        0.133466   396575.986328    ;  uncertainty r = 0.000076, k = 4.735301
        22        49     1        0.108975   335985.006250    ;  uncertainty r = 0.000017, k = 1.714266
        23        24     1        0.131923   385270.324951    ;  uncertainty r = 0.000252, k = 13.138765
        24        25     1        0.139258   338403.064062    ;  uncertainty r = 0.000167, k = 9.975896
        25        26     1        0.134220   236769.505762    ;  uncertainty r = 0.000187, k = 12.967092
        25        29     1        0.134220   236769.505762    ;  uncertainty r = 0.000187, k = 12.967092
        26        27     1        0.132496   468484.196094    ;  uncertainty r = 0.000066, k = 8.544739
        27        28     1        0.142317   257237.805371    ;  uncertainty r = 0.000153, k = 10.952956
        27        50     1        0.108439   340056.106689    ;  uncertainty r = 0.000037, k = 1.147400
        28        29     1        0.132496   468484.145020    ;  uncertainty r = 0.000066, k = 8.544757
        28        51     1        0.108439   340056.106689    ;  uncertainty r = 0.000037, k = 1.147400

[ angles ]
;       ai        aj        ak funct           theta             cth
         1         2         3     1      122.372604      418.636154    ;  uncertainty theta = 0.002202, k = 0.178974
         1         2         8     1      118.694351      504.935496    ;  uncertainty theta = 0.002079, k = 0.183388
         2         1        30     1      108.943436      385.594359    ;  uncertainty theta = 0.001293, k = 0.046207
         2         1        31     1      108.943436      385.594359    ;  uncertainty theta = 0.001293, k = 0.046207
         2         1        32     1      108.943436      385.594359    ;  uncertainty theta = 0.001293, k = 0.046207
         2         3         4     1      116.498520      460.598349    ;  uncertainty theta = 0.005053, k = 0.122034
         2         3        33     1      121.718430      273.369457    ;  uncertainty theta = 0.001159, k = 0.085456
         2         8         7     1      115.347641      408.898855    ;  uncertainty theta = 0.006383, k = 0.283100
         3         2         8     1      120.465759      656.141103    ;  uncertainty theta = 0.004510, k = 0.102828
         3         4         5     1      122.372604      418.636154    ;  uncertainty theta = 0.002202, k = 0.178974
         3         4         6     1      120.465759      656.141103    ;  uncertainty theta = 0.004510, k = 0.102828
         4         3        33     1      121.718430      273.369457    ;  uncertainty theta = 0.001159, k = 0.085456
         4         5        34     1      108.943436      385.594359    ;  uncertainty theta = 0.001293, k = 0.046207
         4         5        35     1      108.943436      385.594359    ;  uncertainty theta = 0.001293, k = 0.046207
         4         5        36     1      108.943436      385.594359    ;  uncertainty theta = 0.001293, k = 0.046207
         4         6         7     1      115.347641      408.898855    ;  uncertainty theta = 0.006383, k = 0.283100
         5         4         6     1      118.694351      504.935496    ;  uncertainty theta = 0.002079, k = 0.183388
         6         7         8     1      129.113480      717.709797    ;  uncertainty theta = 0.004729, k = 0.118642
         6         7         9     1      119.537033      549.082007    ;  uncertainty theta = 0.007399, k = 0.202209
         7         9        10     1      113.699562      433.285581    ;  uncertainty theta = 0.003934, k = 0.215172
         7         9        16     1      113.699562      433.285581    ;  uncertainty theta = 0.003934, k = 0.215172
         8         7         9     1      119.537033      549.082007    ;  uncertainty theta = 0.007399, k = 0.202209
         9        10        11     1      105.543358      834.662672    ;  uncertainty theta = 0.001817, k = 0.093259
         9        10        37     1      108.562340      456.415882    ;  uncertainty theta = 0.001202, k = 0.062362
         9        10        38     1      108.562340      456.415882    ;  uncertainty theta = 0.001202, k = 0.062362
         9        16        15     1      105.543358      834.662672    ;  uncertainty theta = 0.001817, k = 0.093260
         9        16        45     1      108.562340      456.415882    ;  uncertainty theta = 0.001202, k = 0.062362
         9        16        46     1      108.562340      456.415882    ;  uncertainty theta = 0.001202, k = 0.062362
        10         9        16     1      112.639450      489.228386    ;  uncertainty theta = 0.009972, k = 0.334405
        10        11        12     1      113.001526      495.885112    ;  uncertainty theta = 0.002967, k = 0.272650
        10        11        15     1      106.407143      696.228300    ;  uncertainty theta = 0.000820, k = 0.121960
        10        11        39     1      108.909218      387.529593    ;  uncertainty theta = 0.002428, k = 0.196423
        11        10        37     1      109.942749      401.681046    ;  uncertainty theta = 0.001744, k = 0.042629
        11        10        38     1      109.942749      401.681046    ;  uncertainty theta = 0.001744, k = 0.042629
        11        12        13     1      106.121384      800.284998    ;  uncertainty theta = 0.003164, k = 0.175578
        11        12        40     1      109.812805      398.157914    ;  uncertainty theta = 0.002056, k = 0.096133
        11        12        41     1      109.812805      398.157914    ;  uncertainty theta = 0.002056, k = 0.096133
        11        15        14     1      106.536072      683.535718    ;  uncertainty theta = 0.002057, k = 0.120116
        11        15        16     1      106.407143      696.228492    ;  uncertainty theta = 0.000820, k = 0.121960
        11        15        44     1      109.787766      408.249925    ;  uncertainty theta = 0.001833, k = 0.098421
        12        11        15     1      106.536072      683.535654    ;  uncertainty theta = 0.002057, k = 0.120117
        12        11        39     1      108.976547      381.109245    ;  uncertainty theta = 0.002391, k = 0.150517
        12        13        14     1      114.279503      545.640499    ;  uncertainty theta = 0.003251, k = 0.154428
        12        13        17     1      117.757973      361.213027    ;  uncertainty theta = 0.005222, k = 0.118899
        13        12        40     1      109.280762      458.585387    ;  uncertainty theta = 0.001394, k = 0.095689
        13        12        41     1      109.280762      458.585387    ;  uncertainty theta = 0.001394, k = 0.095689
        13        14        15     1      106.121384      800.284934    ;  uncertainty theta = 0.003164, k = 0.175578
        13        14        42     1      109.280762      458.585355    ;  uncertainty theta = 0.001394, k = 0.095689
        13        14        43     1      109.280762      458.585355    ;  uncertainty theta = 0.001394, k = 0.095689
        13        17        18     1      124.978638      733.561894    ;  uncertainty theta = 0.002116, k = 0.119637
        13        17        19     1      112.096024      369.048770    ;  uncertainty theta = 0.003269, k = 0.347841
        14        13        17     1      117.757973      361.212995    ;  uncertainty theta = 0.005222, k = 0.118900
        14        15        16     1      113.001526      495.885112    ;  uncertainty theta = 0.002967, k = 0.272650
        14        15        44     1      108.976547      381.109245    ;  uncertainty theta = 0.002391, k = 0.150517
        15        11        39     1      109.787766      408.249925    ;  uncertainty theta = 0.001833, k = 0.098421
        15        14        42     1      109.812805      398.157914    ;  uncertainty theta = 0.002056, k = 0.096133
        15        14        43     1      109.812805      398.157914    ;  uncertainty theta = 0.002056, k = 0.096133
        15        16        45     1      109.942749      401.681014    ;  uncertainty theta = 0.001744, k = 0.042629
        15        16        46     1      109.942749      401.681014    ;  uncertainty theta = 0.001744, k = 0.042629
        16        15        44     1      108.909218      387.529561    ;  uncertainty theta = 0.002428, k = 0.196423
        17        19        20     1      122.310814      373.739426    ;  uncertainty theta = 0.007256, k = 0.232130
        17        19        24     1      125.223938      357.840245    ;  uncertainty theta = 0.007337, k = 0.295778
        18        17        19     1      124.602234      481.829232    ;  uncertainty theta = 0.007493, k = 0.296393
        19        20        21     1      119.714432      535.399224    ;  uncertainty theta = 0.004970, k = 0.090846
        19        20        47     1      118.996666      263.172170    ;  uncertainty theta = 0.001355, k = 0.185303
        19        24        23     1      128.795441      555.226811    ;  uncertainty theta = 0.007208, k = 0.338173
        19        24        25     1      115.581261      409.619544    ;  uncertainty theta = 0.004307, k = 0.311533
        20        19        24     1      118.808495      424.953461    ;  uncertainty theta = 0.010002, k = 0.244130
        20        21        22     1      115.483604      478.137683    ;  uncertainty theta = 0.003659, k = 0.093419
        20        21        48     1      121.808022      281.994552    ;  uncertainty theta = 0.002600, k = 0.102034
        21        20        47     1      121.418373      289.364977    ;  uncertainty theta = 0.003063, k = 0.138530
        21        22        23     1      122.630447      675.897313    ;  uncertainty theta = 0.001531, k = 0.069467
        21        22        49     1      121.357925      279.730495    ;  uncertainty theta = 0.001827, k = 0.030503
        22        21        48     1      121.851662      289.107403    ;  uncertainty theta = 0.001032, k = 0.094890
        22        23        24     1      116.532669      374.618956    ;  uncertainty theta = 0.004137, k = 0.157512
        23        22        49     1      116.109818      328.128872    ;  uncertainty theta = 0.003313, k = 0.066067
        23        24        25     1      113.712540      505.899745    ;  uncertainty theta = 0.001421, k = 0.233078
        24        25        26     1      113.374146      417.475365    ;  uncertainty theta = 0.007075, k = 0.083786
        24        25        29     1      113.374146      417.475365    ;  uncertainty theta = 0.007075, k = 0.083786
        25        26        27     1      105.212303      912.932443    ;  uncertainty theta = 0.003229, k = 0.216204
        25        29        28     1      105.212303      912.932443    ;  uncertainty theta = 0.003229, k = 0.216204
        26        25        29     1      114.603226     1170.106266    ;  uncertainty theta = 0.002607, k = 0.314276
        26        27        28     1      108.985092      878.841041    ;  uncertainty theta = 0.002705, k = 0.077651
        26        27        50     1      119.663780      273.850033    ;  uncertainty theta = 0.003118, k = 0.165680
        27        28        29     1      108.985092      878.841041    ;  uncertainty theta = 0.002705, k = 0.077651
        27        28        51     1      126.889648      243.503233    ;  uncertainty theta = 0.003691, k = 0.081430
        28        27        50     1      126.889648      243.503233    ;  uncertainty theta = 0.003691, k = 0.081430
        29        28        51     1      119.663780      273.850033    ;  uncertainty theta = 0.003118, k = 0.165680
        30         1        31     1      107.153793      312.530167    ;  uncertainty theta = 0.001242, k = 0.032267
        30         1        32     1      107.153793      312.530167    ;  uncertainty theta = 0.001242, k = 0.032267
        31         1        32     1      107.153793      312.530167    ;  uncertainty theta = 0.001242, k = 0.032267
        34         5        35     1      107.153793      312.530167    ;  uncertainty theta = 0.001242, k = 0.032267
        34         5        36     1      107.153793      312.530167    ;  uncertainty theta = 0.001242, k = 0.032267
        35         5        36     1      107.153793      312.530167    ;  uncertainty theta = 0.001242, k = 0.032267
        37        10        38     1      105.122986      312.324913    ;  uncertainty theta = 0.002382, k = 0.114503
        40        12        41     1      105.371437      309.387890    ;  uncertainty theta = 0.003860, k = 0.079571
        42        14        43     1      105.371445      309.387890    ;  uncertainty theta = 0.003860, k = 0.079571
        45        16        46     1      105.123001      312.324913    ;  uncertainty theta = 0.002382, k = 0.114504

[ dihedrals ] ; propers for gromacs 4.5 or higher, use funct 9
;       ai        aj        ak        al funct           phase               k        pn
         1         2         3         4     9        0.000000       -0.007202         1    ;  uncertainty k = 0.501717
         1         2         3         4     9      180.000000        7.613770         2    ;  uncertainty k = 0.266340
         1         2         3         4     9        0.000000        0.944105         3    ;  uncertainty k = 0.227996
         1         2         3         4     9      180.000000        1.305657         4    ;  uncertainty k = 0.239337
         1         2         3        33     9        0.000000       -0.261675         1    ;  uncertainty k = 0.315637
         1         2         3        33     9      180.000000        6.874962         2    ;  uncertainty k = 0.342650
         1         2         3        33     9        0.000000        0.656535         3    ;  uncertainty k = 0.284603
         1         2         3        33     9      180.000000        0.765991         4    ;  uncertainty k = 0.276599
         1         2         8         7     9        0.000000        0.048315         1    ;  uncertainty k = 0.979765
         1         2         8         7     9      180.000000       15.003732         2    ;  uncertainty k = 0.544478
         1         2         8         7     9        0.000000        2.381190         3    ;  uncertainty k = 0.363196
         1         2         8         7     9      180.000000        1.660639         4    ;  uncertainty k = 0.462769
         2         3         4         5     9        0.000000       -0.007202         1    ;  uncertainty k = 0.501717
         2         3         4         5     9      180.000000        7.613770         2    ;  uncertainty k = 0.266340
         2         3         4         5     9        0.000000        0.944105         3    ;  uncertainty k = 0.227996
         2         3         4         5     9      180.000000        1.305657         4    ;  uncertainty k = 0.239337
         2         3         4         6     9        0.000000       -0.216009         1    ;  uncertainty k = 0.356936
         2         3         4         6     9      180.000000       11.910555         2    ;  uncertainty k = 0.424709
         2         3         4         6     9        0.000000       -1.407438         3    ;  uncertainty k = 0.758939
         2         3         4         6     9      180.000000        0.980955         4    ;  uncertainty k = 0.077687
         2         8         7         6     9        0.000000       -0.609060         1    ;  uncertainty k = 0.758199
         2         8         7         6     9      180.000000        8.692615         2    ;  uncertainty k = 0.791818
         2         8         7         6     9        0.000000        0.670286         3    ;  uncertainty k = 0.621159
         2         8         7         6     9      180.000000        0.786580         4    ;  uncertainty k = 0.112571
         2         8         7         9     9        0.000000        0.521917         1    ;  uncertainty k = 0.979110
         2         8         7         9     9      180.000000       10.533274         2    ;  uncertainty k = 0.414227
         2         8         7         9     9        0.000000        1.726081         3    ;  uncertainty k = 0.365721
         2         8         7         9     9      180.000000        0.994637         4    ;  uncertainty k = 0.141068
         3         2         1        30     9        0.000000       -0.250297         1    ;  uncertainty k = 0.274873
         3         2         1        30     9      180.000000        2.290444         2    ;  uncertainty k = 0.171777
         3         2         1        30     9        0.000000        0.278065         3    ;  uncertainty k = 0.038017
         3         2         1        30     9      180.000000        0.146673         4    ;  uncertainty k = 0.025666
         3         2         1        31     9        0.000000       -0.250297         1    ;  uncertainty k = 0.274873
         3         2         1        31     9      180.000000        2.290444         2    ;  uncertainty k = 0.171777
         3         2         1        31     9        0.000000        0.278065         3    ;  uncertainty k = 0.038017
         3         2         1        31     9      180.000000        0.146673         4    ;  uncertainty k = 0.025666
         3         2         1        32     9        0.000000       -0.250297         1    ;  uncertainty k = 0.274873
         3         2         1        32     9      180.000000        2.290444         2    ;  uncertainty k = 0.171777
         3         2         1        32     9        0.000000        0.278065         3    ;  uncertainty k = 0.038017
         3         2         1        32     9      180.000000        0.146673         4    ;  uncertainty k = 0.025666
         3         2         8         7     9        0.000000       -0.347754         1    ;  uncertainty k = 0.474198
         3         2         8         7     9      180.000000       15.075407         2    ;  uncertainty k = 0.177114
         3         2         8         7     9        0.000000        0.171723         3    ;  uncertainty k = 0.438996
         3         2         8         7     9      180.000000        1.128465         4    ;  uncertainty k = 0.364424
         3         4         5        34     9        0.000000       -0.250297         1    ;  uncertainty k = 0.274873
         3         4         5        34     9      180.000000        2.290444         2    ;  uncertainty k = 0.171777
         3         4         5        34     9        0.000000        0.278065         3    ;  uncertainty k = 0.038017
         3         4         5        34     9      180.000000        0.146673         4    ;  uncertainty k = 0.025666
         3         4         5        35     9        0.000000       -0.250297         1    ;  uncertainty k = 0.274873
         3         4         5        35     9      180.000000        2.290444         2    ;  uncertainty k = 0.171777
         3         4         5        35     9        0.000000        0.278065         3    ;  uncertainty k = 0.038017
         3         4         5        35     9      180.000000        0.146673         4    ;  uncertainty k = 0.025666
         3         4         5        36     9        0.000000       -0.250297         1    ;  uncertainty k = 0.274873
         3         4         5        36     9      180.000000        2.290444         2    ;  uncertainty k = 0.171777
         3         4         5        36     9        0.000000        0.278065         3    ;  uncertainty k = 0.038017
         3         4         5        36     9      180.000000        0.146673         4    ;  uncertainty k = 0.025666
         3         4         6         7     9        0.000000       -0.347754         1    ;  uncertainty k = 0.474198
         3         4         6         7     9      180.000000       15.075407         2    ;  uncertainty k = 0.177114
         3         4         6         7     9        0.000000        0.171723         3    ;  uncertainty k = 0.438996
         3         4         6         7     9      180.000000        1.128465         4    ;  uncertainty k = 0.364424
         4         3         2         8     9        0.000000       -0.216009         1    ;  uncertainty k = 0.356936
         4         3         2         8     9      180.000000       11.910555         2    ;  uncertainty k = 0.424709
         4         3         2         8     9        0.000000       -1.407438         3    ;  uncertainty k = 0.758939
         4         3         2         8     9      180.000000        0.980955         4    ;  uncertainty k = 0.077687
         4         6         7         8     9        0.000000       -0.609060         1    ;  uncertainty k = 0.758199
         4         6         7         8     9      180.000000        8.692615         2    ;  uncertainty k = 0.791818
         4         6         7         8     9        0.000000        0.670286         3    ;  uncertainty k = 0.621159
         4         6         7         8     9      180.000000        0.786580         4    ;  uncertainty k = 0.112571
         4         6         7         9     9        0.000000        0.521917         1    ;  uncertainty k = 0.979110
         4         6         7         9     9      180.000000       10.533274         2    ;  uncertainty k = 0.414227
         4         6         7         9     9        0.000000        1.726081         3    ;  uncertainty k = 0.365721
         4         6         7         9     9      180.000000        0.994637         4    ;  uncertainty k = 0.141068
         5         4         3        33     9        0.000000       -0.261675         1    ;  uncertainty k = 0.315637
         5         4         3        33     9      180.000000        6.874962         2    ;  uncertainty k = 0.342650
         5         4         3        33     9        0.000000        0.656535         3    ;  uncertainty k = 0.284603
         5         4         3        33     9      180.000000        0.765991         4    ;  uncertainty k = 0.276599
         5         4         6         7     9        0.000000        0.048315         1    ;  uncertainty k = 0.979765
         5         4         6         7     9      180.000000       15.003732         2    ;  uncertainty k = 0.544478
         5         4         6         7     9        0.000000        2.381190         3    ;  uncertainty k = 0.363196
         5         4         6         7     9      180.000000        1.660639         4    ;  uncertainty k = 0.462769
         6         4         3        33     9        0.000000        0.224609         1    ;  uncertainty k = 0.474805
         6         4         3        33     9      180.000000        8.441723         2    ;  uncertainty k = 0.328864
         6         4         3        33     9        0.000000        1.108367         3    ;  uncertainty k = 0.321336
         6         4         3        33     9      180.000000        1.600213         4    ;  uncertainty k = 0.093449
         6         4         5        34     9        0.000000        0.603364         1    ;  uncertainty k = 0.264623
         6         4         5        34     9      180.000000        3.634560         2    ;  uncertainty k = 0.065840
         6         4         5        34     9        0.000000        0.492173         3    ;  uncertainty k = 0.029988
         6         4         5        34     9      180.000000        0.275109         4    ;  uncertainty k = 0.045162
         6         4         5        35     9        0.000000        0.603364         1    ;  uncertainty k = 0.264623
         6         4         5        35     9      180.000000        3.634560         2    ;  uncertainty k = 0.065840
         6         4         5        35     9        0.000000        0.492173         3    ;  uncertainty k = 0.029988
         6         4         5        35     9      180.000000        0.275109         4    ;  uncertainty k = 0.045162
         6         4         5        36     9        0.000000        0.603364         1    ;  uncertainty k = 0.264623
         6         4         5        36     9      180.000000        3.634560         2    ;  uncertainty k = 0.065840
         6         4         5        36     9        0.000000        0.492173         3    ;  uncertainty k = 0.029988
         6         4         5        36     9      180.000000        0.275109         4    ;  uncertainty k = 0.045162
         6         7         9        10     9        0.000000        5.106263         1    ;  uncertainty k = 0.513053
         6         7         9        10     9      180.000000       11.756744         2    ;  uncertainty k = 0.134928
         6         7         9        10     9        0.000000        0.174633         3    ;  uncertainty k = 0.195421
         6         7         9        10     9      180.000000       -0.347384         4    ;  uncertainty k = 0.051935
         6         7         9        16     9        0.000000        5.106262         1    ;  uncertainty k = 0.513053
         6         7         9        16     9      180.000000       11.756744         2    ;  uncertainty k = 0.134928
         6         7         9        16     9        0.000000        0.174633         3    ;  uncertainty k = 0.195420
         6         7         9        16     9      180.000000       -0.347384         4    ;  uncertainty k = 0.051934
         7         9        10        11     9        0.000000       -5.472950         1    ;  uncertainty k = 1.903105
         7         9        10        11     9      180.000000        0.716175         2    ;  uncertainty k = 0.687896
         7         9        10        11     9        0.000000        0.811633         3    ;  uncertainty k = 0.285403
         7         9        10        11     9      180.000000        0.315930         4    ;  uncertainty k = 0.127584
         7         9        10        37     9        0.000000       -0.203572         1    ;  uncertainty k = 0.772783
         7         9        10        37     9      180.000000        1.020940         2    ;  uncertainty k = 0.423811
         7         9        10        37     9        0.000000        0.580937         3    ;  uncertainty k = 0.130796
         7         9        10        37     9      180.000000        0.377931         4    ;  uncertainty k = 0.101923
         7         9        10        38     9        0.000000       -0.203572         1    ;  uncertainty k = 0.772783
         7         9        10        38     9      180.000000        1.020940         2    ;  uncertainty k = 0.423811
         7         9        10        38     9        0.000000        0.580937         3    ;  uncertainty k = 0.130796
         7         9        10        38     9      180.000000        0.377931         4    ;  uncertainty k = 0.101923
         7         9        16        15     9        0.000000       -5.472951         1    ;  uncertainty k = 1.903105
         7         9        16        15     9      180.000000        0.716175         2    ;  uncertainty k = 0.687896
         7         9        16        15     9        0.000000        0.811634         3    ;  uncertainty k = 0.285402
         7         9        16        15     9      180.000000        0.315929         4    ;  uncertainty k = 0.127584
         7         9        16        45     9        0.000000       -0.203573         1    ;  uncertainty k = 0.772782
         7         9        16        45     9      180.000000        1.020940         2    ;  uncertainty k = 0.423811
         7         9        16        45     9        0.000000        0.580937         3    ;  uncertainty k = 0.130796
         7         9        16        45     9      180.000000        0.377930         4    ;  uncertainty k = 0.101923
         7         9        16        46     9        0.000000       -0.203573         1    ;  uncertainty k = 0.772782
         7         9        16        46     9      180.000000        1.020940         2    ;  uncertainty k = 0.423811
         7         9        16        46     9        0.000000        0.580937         3    ;  uncertainty k = 0.130796
         7         9        16        46     9      180.000000        0.377930         4    ;  uncertainty k = 0.101923
         8         2         1        30     9        0.000000        0.603364         1    ;  uncertainty k = 0.264623
         8         2         1        30     9      180.000000        3.634560         2    ;  uncertainty k = 0.065840
         8         2         1        30     9        0.000000        0.492173         3    ;  uncertainty k = 0.029988
         8         2         1        30     9      180.000000        0.275109         4    ;  uncertainty k = 0.045162
         8         2         1        31     9        0.000000        0.603364         1    ;  uncertainty k = 0.264623
         8         2         1        31     9      180.000000        3.634560         2    ;  uncertainty k = 0.065840
         8         2         1        31     9        0.000000        0.492173         3    ;  uncertainty k = 0.029988
         8         2         1        31     9      180.000000        0.275109         4    ;  uncertainty k = 0.045162
         8         2         1        32     9        0.000000        0.603364         1    ;  uncertainty k = 0.264623
         8         2         1        32     9      180.000000        3.634560         2    ;  uncertainty k = 0.065840
         8         2         1        32     9        0.000000        0.492173         3    ;  uncertainty k = 0.029988
         8         2         1        32     9      180.000000        0.275109         4    ;  uncertainty k = 0.045162
         8         2         3        33     9        0.000000        0.224609         1    ;  uncertainty k = 0.474805
         8         2         3        33     9      180.000000        8.441723         2    ;  uncertainty k = 0.328864
         8         2         3        33     9        0.000000        1.108367         3    ;  uncertainty k = 0.321336
         8         2         3        33     9      180.000000        1.600213         4    ;  uncertainty k = 0.093449
         8         7         9        10     9        0.000000        5.106263         1    ;  uncertainty k = 0.513053
         8         7         9        10     9      180.000000       11.756744         2    ;  uncertainty k = 0.134928
         8         7         9        10     9        0.000000        0.174633         3    ;  uncertainty k = 0.195421
         8         7         9        10     9      180.000000       -0.347384         4    ;  uncertainty k = 0.051935
         8         7         9        16     9        0.000000        5.106262         1    ;  uncertainty k = 0.513053
         8         7         9        16     9      180.000000       11.756744         2    ;  uncertainty k = 0.134928
         8         7         9        16     9        0.000000        0.174633         3    ;  uncertainty k = 0.195420
         8         7         9        16     9      180.000000       -0.347384         4    ;  uncertainty k = 0.051934
         9        10        11        12     9        0.000000       -1.986983         1    ;  uncertainty k = 1.131585
         9        10        11        12     9      180.000000        0.974418         2    ;  uncertainty k = 0.865255
         9        10        11        12     9        0.000000        1.658617         3    ;  uncertainty k = 0.387465
         9        10        11        12     9      180.000000       -0.170489         4    ;  uncertainty k = 0.236446
         9        10        11        15     9        0.000000       -0.248944         1    ;  uncertainty k = 1.669287
         9        10        11        15     9      180.000000        6.161827         2    ;  uncertainty k = 1.110762
         9        10        11        15     9        0.000000        0.670927         3    ;  uncertainty k = 0.347090
         9        10        11        15     9      180.000000       -1.488831         4    ;  uncertainty k = 0.506459
         9        10        11        39     9        0.000000        0.565924         1    ;  uncertainty k = 0.856652
         9        10        11        39     9      180.000000        1.324273         2    ;  uncertainty k = 0.513614
         9        10        11        39     9        0.000000        1.171168         3    ;  uncertainty k = 0.217599
         9        10        11        39     9      180.000000       -0.072433         4    ;  uncertainty k = 0.184790
         9        16        15        11     9        0.000000       -0.248943         1    ;  uncertainty k = 1.669287
         9        16        15        11     9      180.000000        6.161829         2    ;  uncertainty k = 1.110761
         9        16        15        11     9        0.000000        0.670927         3    ;  uncertainty k = 0.347090
         9        16        15        11     9      180.000000       -1.488831         4    ;  uncertainty k = 0.506459
         9        16        15        14     9        0.000000       -1.986983         1    ;  uncertainty k = 1.131581
         9        16        15        14     9      180.000000        0.974419         2    ;  uncertainty k = 0.865256
         9        16        15        14     9        0.000000        1.658617         3    ;  uncertainty k = 0.387464
         9        16        15        14     9      180.000000       -0.170489         4    ;  uncertainty k = 0.236446
         9        16        15        44     9        0.000000        0.565926         1    ;  uncertainty k = 0.856651
         9        16        15        44     9      180.000000        1.324272         2    ;  uncertainty k = 0.513614
         9        16        15        44     9        0.000000        1.171168         3    ;  uncertainty k = 0.217601
         9        16        15        44     9      180.000000       -0.072433         4    ;  uncertainty k = 0.184790
        10         9        16        15     9        0.000000        0.409930         1    ;  uncertainty k = 1.033845
        10         9        16        15     9      180.000000        1.423325         2    ;  uncertainty k = 1.181231
        10         9        16        15     9        0.000000        0.860226         3    ;  uncertainty k = 0.332034
        10         9        16        15     9      180.000000        0.010765         4    ;  uncertainty k = 0.168707
        10         9        16        45     9        0.000000       -2.106813         1    ;  uncertainty k = 0.722683
        10         9        16        45     9      180.000000        1.271153         2    ;  uncertainty k = 0.391419
        10         9        16        45     9        0.000000        1.144989         3    ;  uncertainty k = 0.081016
        10         9        16        45     9      180.000000        0.249969         4    ;  uncertainty k = 0.124009
        10         9        16        46     9        0.000000       -2.106813         1    ;  uncertainty k = 0.722683
        10         9        16        46     9      180.000000        1.271153         2    ;  uncertainty k = 0.391419
        10         9        16        46     9        0.000000        1.144989         3    ;  uncertainty k = 0.081016
        10         9        16        46     9      180.000000        0.249969         4    ;  uncertainty k = 0.124009
        10        11        12        13     9        0.000000       -2.563130         1    ;  uncertainty k = 1.052206
        10        11        12        13     9      180.000000       -0.023380         2    ;  uncertainty k = 0.756268
        10        11        12        13     9        0.000000        1.610221         3    ;  uncertainty k = 0.235206
        10        11        12        13     9      180.000000       -0.185862         4    ;  uncertainty k = 0.122968
        10        11        12        40     9        0.000000       -0.498818         1    ;  uncertainty k = 0.107247
        10        11        12        40     9      180.000000       -0.409706         2    ;  uncertainty k = 0.197166
        10        11        12        40     9        0.000000        0.564543         3    ;  uncertainty k = 0.186998
        10        11        12        40     9      180.000000       -0.072177         4    ;  uncertainty k = 0.062323
        10        11        12        41     9        0.000000       -0.498818         1    ;  uncertainty k = 0.107247
        10        11        12        41     9      180.000000       -0.409706         2    ;  uncertainty k = 0.197166
        10        11        12        41     9        0.000000        0.564543         3    ;  uncertainty k = 0.186998
        10        11        12        41     9      180.000000       -0.072177         4    ;  uncertainty k = 0.062323
        10        11        15        14     9        0.000000       -3.847150         1    ;  uncertainty k = 0.842081
        10        11        15        14     9      180.000000        0.994502         2    ;  uncertainty k = 1.017626
        10        11        15        14     9        0.000000        1.189094         3    ;  uncertainty k = 0.581588
        10        11        15        14     9      180.000000       -0.416044         4    ;  uncertainty k = 0.334399
        10        11        15        16     9        0.000000       -3.896618         1    ;  uncertainty k = 1.087275
        10        11        15        16     9      180.000000        1.035025         2    ;  uncertainty k = 1.026286
        10        11        15        16     9        0.000000        1.207838         3    ;  uncertainty k = 0.671623
        10        11        15        16     9      180.000000       -0.436931         4    ;  uncertainty k = 0.343366
        10        11        15        44     9        0.000000       -1.223112         1    ;  uncertainty k = 0.611377
        10        11        15        44     9      180.000000        0.489634         2    ;  uncertainty k = 0.414978
        10        11        15        44     9        0.000000        0.997353         3    ;  uncertainty k = 0.241670
        10        11        15        44     9      180.000000        0.066778         4    ;  uncertainty k = 0.087125
        11        10         9        16     9        0.000000        0.409931         1    ;  uncertainty k = 1.033845
        11        10         9        16     9      180.000000        1.423324         2    ;  uncertainty k = 1.181232
        11        10         9        16     9        0.000000        0.860226         3    ;  uncertainty k = 0.332034
        11        10         9        16     9      180.000000        0.010765         4    ;  uncertainty k = 0.168708
        11        12        13        14     9        0.000000       -0.575220         1    ;  uncertainty k = 0.946972
        11        12        13        14     9      180.000000        0.203789         2    ;  uncertainty k = 0.714257
        11        12        13        14     9        0.000000        0.797470         3    ;  uncertainty k = 0.213423
        11        12        13        14     9      180.000000        0.150230         4    ;  uncertainty k = 0.260816
        11        12        13        17     9        0.000000        0.107128         1    ;  uncertainty k = 0.916590
        11        12        13        17     9      180.000000       -0.499898         2    ;  uncertainty k = 0.397890
        11        12        13        17     9        0.000000        0.181447         3    ;  uncertainty k = 0.313058
        11        12        13        17     9      180.000000        0.731251         4    ;  uncertainty k = 0.147432
        11        15        14        13     9        0.000000       -0.800586         1    ;  uncertainty k = 0.688183
        11        15        14        13     9      180.000000        5.826073         2    ;  uncertainty k = 0.963437
        11        15        14        13     9        0.000000        0.454697         3    ;  uncertainty k = 0.292405
        11        15        14        13     9      180.000000       -1.151127         4    ;  uncertainty k = 0.218940
        11        15        14        42     9        0.000000        0.480411         1    ;  uncertainty k = 0.492791
        11        15        14        42     9      180.000000       -1.104496         2    ;  uncertainty k = 0.672329
        11        15        14        42     9        0.000000       -0.270073         3    ;  uncertainty k = 0.170671
        11        15        14        42     9      180.000000       -0.013160         4    ;  uncertainty k = 0.174221
        11        15        14        43     9        0.000000        0.480411         1    ;  uncertainty k = 0.492791
        11        15        14        43     9      180.000000       -1.104496         2    ;  uncertainty k = 0.672329
        11        15        14        43     9        0.000000       -0.270073         3    ;  uncertainty k = 0.170671
        11        15        14        43     9      180.000000       -0.013160         4    ;  uncertainty k = 0.174221
        11        15        16        45     9        0.000000        0.646621         1    ;  uncertainty k = 0.517783
        11        15        16        45     9      180.000000       -1.099688         2    ;  uncertainty k = 0.743824
        11        15        16        45     9        0.000000       -0.334779         3    ;  uncertainty k = 0.213643
        11        15        16        45     9      180.000000       -0.018734         4    ;  uncertainty k = 0.206092
        11        15        16        46     9        0.000000        0.646621         1    ;  uncertainty k = 0.517783
        11        15        16        46     9      180.000000       -1.099688         2    ;  uncertainty k = 0.743824
        11        15        16        46     9        0.000000       -0.334779         3    ;  uncertainty k = 0.213643
        11        15        16        46     9      180.000000       -0.018734         4    ;  uncertainty k = 0.206092
        12        11        10        37     9        0.000000       -0.670734         1    ;  uncertainty k = 0.233995
        12        11        10        37     9      180.000000       -0.386310         2    ;  uncertainty k = 0.258590
        12        11        10        37     9        0.000000        0.557637         3    ;  uncertainty k = 0.179621
        12        11        10        37     9      180.000000       -0.081826         4    ;  uncertainty k = 0.095492
        12        11        10        38     9        0.000000       -0.670734         1    ;  uncertainty k = 0.233995
        12        11        10        38     9      180.000000       -0.386310         2    ;  uncertainty k = 0.258590
        12        11        10        38     9        0.000000        0.557637         3    ;  uncertainty k = 0.179621
        12        11        10        38     9      180.000000       -0.081826         4    ;  uncertainty k = 0.095492
        12        11        15        14     9        0.000000       -3.717091         1    ;  uncertainty k = 0.646014
        12        11        15        14     9      180.000000        0.952705         2    ;  uncertainty k = 0.984304
        12        11        15        14     9        0.000000        1.178983         3    ;  uncertainty k = 0.499657
        12        11        15        14     9      180.000000       -0.410261         4    ;  uncertainty k = 0.338854
        12        11        15        16     9        0.000000       -3.847151         1    ;  uncertainty k = 0.842082
        12        11        15        16     9      180.000000        0.994504         2    ;  uncertainty k = 1.017625
        12        11        15        16     9        0.000000        1.189094         3    ;  uncertainty k = 0.581588
        12        11        15        16     9      180.000000       -0.416044         4    ;  uncertainty k = 0.334399
        12        11        15        44     9        0.000000       -1.291634         1    ;  uncertainty k = 0.560343
        12        11        15        44     9      180.000000        0.594321         2    ;  uncertainty k = 0.368266
        12        11        15        44     9        0.000000        1.030260         3    ;  uncertainty k = 0.246250
        12        11        15        44     9      180.000000        0.081405         4    ;  uncertainty k = 0.059901
        12        13        14        15     9        0.000000       -0.575221         1    ;  uncertainty k = 0.946970
        12        13        14        15     9      180.000000        0.203789         2    ;  uncertainty k = 0.714258
        12        13        14        15     9        0.000000        0.797471         3    ;  uncertainty k = 0.213424
        12        13        14        15     9      180.000000        0.150230         4    ;  uncertainty k = 0.260816
        12        13        14        42     9        0.000000       -1.824571         1    ;  uncertainty k = 0.566643
        12        13        14        42     9      180.000000        1.025746         2    ;  uncertainty k = 0.451270
        12        13        14        42     9        0.000000        1.244730         3    ;  uncertainty k = 0.136561
        12        13        14        42     9      180.000000        0.291742         4    ;  uncertainty k = 0.121169
        12        13        14        43     9        0.000000       -1.824571         1    ;  uncertainty k = 0.566643
        12        13        14        43     9      180.000000        1.025746         2    ;  uncertainty k = 0.451270
        12        13        14        43     9        0.000000        1.244730         3    ;  uncertainty k = 0.136561
        12        13        14        43     9      180.000000        0.291742         4    ;  uncertainty k = 0.121169
        12        13        17        18     9        0.000000        5.985396         1    ;  uncertainty k = 0.455320
        12        13        17        18     9      180.000000       16.720085         2    ;  uncertainty k = 0.192082
        12        13        17        18     9        0.000000        0.228257         3    ;  uncertainty k = 0.228634
        12        13        17        18     9      180.000000       -1.106107         4    ;  uncertainty k = 0.161329
        12        13        17        19     9        0.000000        3.059548         1    ;  uncertainty k = 1.025106
        12        13        17        19     9      180.000000        8.867780         2    ;  uncertainty k = 0.361065
        12        13        17        19     9        0.000000        1.778383         3    ;  uncertainty k = 0.388256
        12        13        17        19     9      180.000000       -0.120619         4    ;  uncertainty k = 0.229998
        13        12        11        15     9        0.000000       -0.800587         1    ;  uncertainty k = 0.688182
        13        12        11        15     9      180.000000        5.826073         2    ;  uncertainty k = 0.963438
        13        12        11        15     9        0.000000        0.454697         3    ;  uncertainty k = 0.292404
        13        12        11        15     9      180.000000       -1.151127         4    ;  uncertainty k = 0.218940
        13        12        11        39     9        0.000000        0.123123         1    ;  uncertainty k = 0.660631
        13        12        11        39     9      180.000000        0.817024         2    ;  uncertainty k = 0.406328
        13        12        11        39     9        0.000000        1.098930         3    ;  uncertainty k = 0.163874
        13        12        11        39     9      180.000000       -0.068553         4    ;  uncertainty k = 0.099897
        13        14        15        16     9        0.000000       -2.563131         1    ;  uncertainty k = 1.052205
        13        14        15        16     9      180.000000       -0.023380         2    ;  uncertainty k = 0.756267
        13        14        15        16     9        0.000000        1.610221         3    ;  uncertainty k = 0.235206
        13        14        15        16     9      180.000000       -0.185862         4    ;  uncertainty k = 0.122968
        13        14        15        44     9        0.000000        0.123123         1    ;  uncertainty k = 0.660632
        13        14        15        44     9      180.000000        0.817024         2    ;  uncertainty k = 0.406329
        13        14        15        44     9        0.000000        1.098930         3    ;  uncertainty k = 0.163874
        13        14        15        44     9      180.000000       -0.068554         4    ;  uncertainty k = 0.099897
        13        17        19        20     9        0.000000        3.746500         1    ;  uncertainty k = 0.944427
        13        17        19        20     9      180.000000        5.243356         2    ;  uncertainty k = 0.370391
        13        17        19        20     9        0.000000        0.204629         3    ;  uncertainty k = 0.154103
        13        17        19        20     9      180.000000        0.383017         4    ;  uncertainty k = 0.089473
        13        17        19        24     9        0.000000        0.988162         1    ;  uncertainty k = 0.724491
        13        17        19        24     9      180.000000        6.062505         2    ;  uncertainty k = 0.535133
        13        17        19        24     9        0.000000       -0.503973         3    ;  uncertainty k = 0.200340
        13        17        19        24     9      180.000000        0.508183         4    ;  uncertainty k = 0.206444
        14        13        12        40     9        0.000000       -1.824571         1    ;  uncertainty k = 0.566644
        14        13        12        40     9      180.000000        1.025746         2    ;  uncertainty k = 0.451270
        14        13        12        40     9        0.000000        1.244729         3    ;  uncertainty k = 0.136561
        14        13        12        40     9      180.000000        0.291742         4    ;  uncertainty k = 0.121169
        14        13        12        41     9        0.000000       -1.824571         1    ;  uncertainty k = 0.566644
        14        13        12        41     9      180.000000        1.025746         2    ;  uncertainty k = 0.451270
        14        13        12        41     9        0.000000        1.244729         3    ;  uncertainty k = 0.136561
        14        13        12        41     9      180.000000        0.291742         4    ;  uncertainty k = 0.121169
        14        13        17        18     9        0.000000        5.985395         1    ;  uncertainty k = 0.455320
        14        13        17        18     9      180.000000       16.720085         2    ;  uncertainty k = 0.192083
        14        13        17        18     9        0.000000        0.228257         3    ;  uncertainty k = 0.228634
        14        13        17        18     9      180.000000       -1.106107         4    ;  uncertainty k = 0.161330
        14        13        17        19     9        0.000000        3.059544         1    ;  uncertainty k = 1.025109
        14        13        17        19     9      180.000000        8.867779         2    ;  uncertainty k = 0.361066
        14        13        17        19     9        0.000000        1.778382         3    ;  uncertainty k = 0.388256
        14        13        17        19     9      180.000000       -0.120620         4    ;  uncertainty k = 0.229997
        14        15        11        39     9        0.000000       -1.291633         1    ;  uncertainty k = 0.560343
        14        15        11        39     9      180.000000        0.594321         2    ;  uncertainty k = 0.368268
        14        15        11        39     9        0.000000        1.030260         3    ;  uncertainty k = 0.246250
        14        15        11        39     9      180.000000        0.081405         4    ;  uncertainty k = 0.059900
        14        15        16        45     9        0.000000       -0.670733         1    ;  uncertainty k = 0.233996
        14        15        16        45     9      180.000000       -0.386309         2    ;  uncertainty k = 0.258591
        14        15        16        45     9        0.000000        0.557638         3    ;  uncertainty k = 0.179621
        14        15        16        45     9      180.000000       -0.081826         4    ;  uncertainty k = 0.095492
        14        15        16        46     9        0.000000       -0.670733         1    ;  uncertainty k = 0.233996
        14        15        16        46     9      180.000000       -0.386309         2    ;  uncertainty k = 0.258591
        14        15        16        46     9        0.000000        0.557638         3    ;  uncertainty k = 0.179621
        14        15        16        46     9      180.000000       -0.081826         4    ;  uncertainty k = 0.095492
        15        11        10        37     9        0.000000        0.646621         1    ;  uncertainty k = 0.517781
        15        11        10        37     9      180.000000       -1.099689         2    ;  uncertainty k = 0.743823
        15        11        10        37     9        0.000000       -0.334778         3    ;  uncertainty k = 0.213644
        15        11        10        37     9      180.000000       -0.018734         4    ;  uncertainty k = 0.206091
        15        11        10        38     9        0.000000        0.646621         1    ;  uncertainty k = 0.517781
        15        11        10        38     9      180.000000       -1.099689         2    ;  uncertainty k = 0.743823
        15        11        10        38     9        0.000000       -0.334778         3    ;  uncertainty k = 0.213644
        15        11        10        38     9      180.000000       -0.018734         4    ;  uncertainty k = 0.206091
        15        11        12        40     9        0.000000        0.480411         1    ;  uncertainty k = 0.492791
        15        11        12        40     9      180.000000       -1.104495         2    ;  uncertainty k = 0.672328
        15        11        12        40     9        0.000000       -0.270073         3    ;  uncertainty k = 0.170671
        15        11        12        40     9      180.000000       -0.013161         4    ;  uncertainty k = 0.174221
        15        11        12        41     9        0.000000        0.480411         1    ;  uncertainty k = 0.492791
        15        11        12        41     9      180.000000       -1.104495         2    ;  uncertainty k = 0.672328
        15        11        12        41     9        0.000000       -0.270073         3    ;  uncertainty k = 0.170671
        15        11        12        41     9      180.000000       -0.013161         4    ;  uncertainty k = 0.174221
        15        14        13        17     9        0.000000        0.107129         1    ;  uncertainty k = 0.916591
        15        14        13        17     9      180.000000       -0.499898         2    ;  uncertainty k = 0.397891
        15        14        13        17     9        0.000000        0.181446         3    ;  uncertainty k = 0.313058
        15        14        13        17     9      180.000000        0.731252         4    ;  uncertainty k = 0.147432
        16         9        10        37     9        0.000000       -2.106814         1    ;  uncertainty k = 0.722683
        16         9        10        37     9      180.000000        1.271154         2    ;  uncertainty k = 0.391419
        16         9        10        37     9        0.000000        1.144989         3    ;  uncertainty k = 0.081016
        16         9        10        37     9      180.000000        0.249969         4    ;  uncertainty k = 0.124009
        16         9        10        38     9        0.000000       -2.106814         1    ;  uncertainty k = 0.722683
        16         9        10        38     9      180.000000        1.271154         2    ;  uncertainty k = 0.391419
        16         9        10        38     9        0.000000        1.144989         3    ;  uncertainty k = 0.081016
        16         9        10        38     9      180.000000        0.249969         4    ;  uncertainty k = 0.124009
        16        15        11        39     9        0.000000       -1.223110         1    ;  uncertainty k = 0.611378
        16        15        11        39     9      180.000000        0.489635         2    ;  uncertainty k = 0.414979
        16        15        11        39     9        0.000000        0.997353         3    ;  uncertainty k = 0.241669
        16        15        11        39     9      180.000000        0.066778         4    ;  uncertainty k = 0.087125
        16        15        14        42     9        0.000000       -0.498818         1    ;  uncertainty k = 0.107248
        16        15        14        42     9      180.000000       -0.409705         2    ;  uncertainty k = 0.197166
        16        15        14        42     9        0.000000        0.564544         3    ;  uncertainty k = 0.186998
        16        15        14        42     9      180.000000       -0.072177         4    ;  uncertainty k = 0.062323
        16        15        14        43     9        0.000000       -0.498818         1    ;  uncertainty k = 0.107248
        16        15        14        43     9      180.000000       -0.409705         2    ;  uncertainty k = 0.197166
        16        15        14        43     9        0.000000        0.564544         3    ;  uncertainty k = 0.186998
        16        15        14        43     9      180.000000       -0.072177         4    ;  uncertainty k = 0.062323
        17        13        12        40     9        0.000000        1.314598         1    ;  uncertainty k = 0.732720
        17        13        12        40     9      180.000000        0.156228         2    ;  uncertainty k = 0.110428
        17        13        12        40     9        0.000000        0.046777         3    ;  uncertainty k = 0.103419
        17        13        12        40     9      180.000000        0.258663         4    ;  uncertainty k = 0.053586
        17        13        12        41     9        0.000000        1.314598         1    ;  uncertainty k = 0.732720
        17        13        12        41     9      180.000000        0.156228         2    ;  uncertainty k = 0.110428
        17        13        12        41     9        0.000000        0.046777         3    ;  uncertainty k = 0.103419
        17        13        12        41     9      180.000000        0.258663         4    ;  uncertainty k = 0.053586
        17        13        14        42     9        0.000000        1.314597         1    ;  uncertainty k = 0.732720
        17        13        14        42     9      180.000000        0.156228         2    ;  uncertainty k = 0.110428
        17        13        14        42     9        0.000000        0.046777         3    ;  uncertainty k = 0.103419
        17        13        14        42     9      180.000000        0.258663         4    ;  uncertainty k = 0.053586
        17        13        14        43     9        0.000000        1.314597         1    ;  uncertainty k = 0.732720
        17        13        14        43     9      180.000000        0.156228         2    ;  uncertainty k = 0.110428
        17        13        14        43     9        0.000000        0.046777         3    ;  uncertainty k = 0.103419
        17        13        14        43     9      180.000000        0.258663         4    ;  uncertainty k = 0.053586
        17        19        20        21     9        0.000000        0.357874         1    ;  uncertainty k = 0.492331
        17        19        20        21     9      180.000000        9.237913         2    ;  uncertainty k = 0.532321
        17        19        20        21     9        0.000000        1.354955         3    ;  uncertainty k = 0.264907
        17        19        20        21     9      180.000000        1.946770         4    ;  uncertainty k = 0.335210
        17        19        20        47     9        0.000000        0.178392         1    ;  uncertainty k = 0.436791
        17        19        20        47     9      180.000000        8.776921         2    ;  uncertainty k = 0.417074
        17        19        20        47     9        0.000000        0.848144         3    ;  uncertainty k = 0.309042
        17        19        20        47     9      180.000000        1.343152         4    ;  uncertainty k = 0.243487
        17        19        24        23     9        0.000000       -0.177811         1    ;  uncertainty k = 0.535089
        17        19        24        23     9      180.000000        6.637940         2    ;  uncertainty k = 0.976197
        17        19        24        23     9        0.000000        0.850183         3    ;  uncertainty k = 0.314007
        17        19        24        23     9      180.000000        1.562443         4    ;  uncertainty k = 0.283014
        17        19        24        25     9        0.000000       -0.170011         1    ;  uncertainty k = 0.710823
        17        19        24        25     9      180.000000        8.261644         2    ;  uncertainty k = 0.793520
        17        19        24        25     9        0.000000        1.167149         3    ;  uncertainty k = 0.348514
        17        19        24        25     9      180.000000        1.109642         4    ;  uncertainty k = 0.435489
        18        17        19        20     9        0.000000       -2.340396         1    ;  uncertainty k = 0.551779
        18        17        19        20     9      180.000000        4.543988         2    ;  uncertainty k = 0.461189
        18        17        19        20     9        0.000000        0.481816         3    ;  uncertainty k = 0.179731
        18        17        19        20     9      180.000000        0.525711         4    ;  uncertainty k = 0.097149
        18        17        19        24     9        0.000000       -5.760237         1    ;  uncertainty k = 0.408367
        18        17        19        24     9      180.000000        5.591067         2    ;  uncertainty k = 0.261396
        18        17        19        24     9        0.000000        0.224026         3    ;  uncertainty k = 0.441151
        18        17        19        24     9      180.000000        0.451657         4    ;  uncertainty k = 0.159638
        19        20        21        22     9        0.000000       -0.195557         1    ;  uncertainty k = 0.375606
        19        20        21        22     9      180.000000       13.326084         2    ;  uncertainty k = 0.387261
        19        20        21        22     9        0.000000       -0.979411         3    ;  uncertainty k = 0.335224
        19        20        21        22     9      180.000000        0.732196         4    ;  uncertainty k = 0.215788
        19        20        21        48     9        0.000000        0.185210         1    ;  uncertainty k = 0.350726
        19        20        21        48     9      180.000000        8.317100         2    ;  uncertainty k = 0.621319
        19        20        21        48     9        0.000000        1.273635         3    ;  uncertainty k = 0.353898
        19        20        21        48     9      180.000000        1.699142         4    ;  uncertainty k = 0.244562
        19        24        23        22     9        0.000000        0.150878         1    ;  uncertainty k = 0.927354
        19        24        23        22     9      180.000000       12.186226         2    ;  uncertainty k = 0.479653
        19        24        23        22     9        0.000000        1.428530         3    ;  uncertainty k = 0.853728
        19        24        23        22     9      180.000000        1.286047         4    ;  uncertainty k = 0.375632
        19        24        25        26     9        0.000000        1.152899         1    ;  uncertainty k = 1.805119
        19        24        25        26     9      180.000000        4.524385         2    ;  uncertainty k = 0.217872
        19        24        25        26     9        0.000000        0.590852         3    ;  uncertainty k = 0.159813
        19        24        25        26     9      180.000000       -0.095913         4    ;  uncertainty k = 0.124225
        19        24        25        29     9        0.000000        1.152899         1    ;  uncertainty k = 1.805119
        19        24        25        29     9      180.000000        4.524385         2    ;  uncertainty k = 0.217872
        19        24        25        29     9        0.000000        0.590852         3    ;  uncertainty k = 0.159813
        19        24        25        29     9      180.000000       -0.095913         4    ;  uncertainty k = 0.124225
        20        19        24        23     9        0.000000       -0.198648         1    ;  uncertainty k = 1.450769
        20        19        24        23     9      180.000000        6.236327         2    ;  uncertainty k = 1.095425
        20        19        24        23     9        0.000000        0.022489         3    ;  uncertainty k = 0.550232
        20        19        24        23     9      180.000000        1.158267         4    ;  uncertainty k = 0.181772
        20        19        24        25     9        0.000000        0.653659         1    ;  uncertainty k = 0.282126
        20        19        24        25     9      180.000000        7.466547         2    ;  uncertainty k = 0.688244
        20        19        24        25     9        0.000000        1.115631         3    ;  uncertainty k = 0.282799
        20        19        24        25     9      180.000000        1.403290         4    ;  uncertainty k = 0.302707
        20        21        22        23     9        0.000000        0.042959         1    ;  uncertainty k = 0.117578
        20        21        22        23     9      180.000000       15.013094         2    ;  uncertainty k = 0.285754
        20        21        22        23     9        0.000000       -1.341791         3    ;  uncertainty k = 0.727637
        20        21        22        23     9      180.000000        0.832159         4    ;  uncertainty k = 0.164185
        20        21        22        49     9        0.000000       -0.305011         1    ;  uncertainty k = 0.231017
        20        21        22        49     9      180.000000        6.160452         2    ;  uncertainty k = 0.331456
        20        21        22        49     9        0.000000        1.049234         3    ;  uncertainty k = 0.173991
        20        21        22        49     9      180.000000        1.403144         4    ;  uncertainty k = 0.161795
        21        20        19        24     9        0.000000       -0.257986         1    ;  uncertainty k = 0.230707
        21        20        19        24     9      180.000000       10.594665         2    ;  uncertainty k = 0.334604
        21        20        19        24     9        0.000000       -0.074062         3    ;  uncertainty k = 0.168146
        21        20        19        24     9      180.000000        1.253869         4    ;  uncertainty k = 0.318329
        21        22        23        24     9        0.000000        0.027909         1    ;  uncertainty k = 0.530953
        21        22        23        24     9      180.000000       14.770586         2    ;  uncertainty k = 0.383241
        21        22        23        24     9        0.000000        0.923467         3    ;  uncertainty k = 0.635529
        21        22        23        24     9      180.000000        1.503956         4    ;  uncertainty k = 0.298011
        22        21        20        47     9        0.000000       -0.213868         1    ;  uncertainty k = 0.132668
        22        21        20        47     9      180.000000        7.798266         2    ;  uncertainty k = 0.350230
        22        21        20        47     9        0.000000        1.121234         3    ;  uncertainty k = 0.257999
        22        21        20        47     9      180.000000        1.458755         4    ;  uncertainty k = 0.256747
        22        23        24        25     9        0.000000        0.085603         1    ;  uncertainty k = 0.359827
        22        23        24        25     9      180.000000       17.426358         2    ;  uncertainty k = 0.710372
        22        23        24        25     9        0.000000        2.292087         3    ;  uncertainty k = 0.606140
        22        23        24        25     9      180.000000        1.605246         4    ;  uncertainty k = 0.519418
        23        22        21        48     9        0.000000        0.053813         1    ;  uncertainty k = 0.146528
        23        22        21        48     9      180.000000        9.674215         2    ;  uncertainty k = 0.588129
        23        22        21        48     9        0.000000        0.908488         3    ;  uncertainty k = 0.290615
        23        22        21        48     9      180.000000        1.637827         4    ;  uncertainty k = 0.194212
        23        24        25        26     9        0.000000       -1.371359         1    ;  uncertainty k = 0.459439
        23        24        25        26     9      180.000000        4.794506         2    ;  uncertainty k = 0.213815
        23        24        25        26     9        0.000000        0.737758         3    ;  uncertainty k = 0.243275
        23        24        25        26     9      180.000000       -0.000928         4    ;  uncertainty k = 0.071384
        23        24        25        29     9        0.000000       -1.371359         1    ;  uncertainty k = 0.459439
        23        24        25        29     9      180.000000        4.794506         2    ;  uncertainty k = 0.213815
        23        24        25        29     9        0.000000        0.737758         3    ;  uncertainty k = 0.243275
        23        24        25        29     9      180.000000       -0.000928         4    ;  uncertainty k = 0.071384
        24        19        20        47     9        0.000000       -0.037172         1    ;  uncertainty k = 0.261380
        24        19        20        47     9      180.000000        7.679736         2    ;  uncertainty k = 0.664968
        24        19        20        47     9        0.000000        1.146383         3    ;  uncertainty k = 0.094806
        24        19        20        47     9      180.000000        1.659047         4    ;  uncertainty k = 0.173248
        24        23        22        49     9        0.000000        0.305601         1    ;  uncertainty k = 0.417340
        24        23        22        49     9      180.000000       15.671602         2    ;  uncertainty k = 0.397245
        24        23        22        49     9        0.000000        2.140769         3    ;  uncertainty k = 0.929552
        24        23        22        49     9      180.000000        1.494501         4    ;  uncertainty k = 0.410349
        24        25        26        27     9        0.000000        1.888304         1    ;  uncertainty k = 2.402898
        24        25        26        27     9      180.000000       11.874619         2    ;  uncertainty k = 0.408579
        24        25        26        27     9        0.000000        1.881779         3    ;  uncertainty k = 0.564862
        24        25        26        27     9      180.000000        0.301515         4    ;  uncertainty k = 0.294190
        24        25        29        28     9        0.000000        1.888304         1    ;  uncertainty k = 2.402898
        24        25        29        28     9      180.000000       11.874619         2    ;  uncertainty k = 0.408579
        24        25        29        28     9        0.000000        1.881779         3    ;  uncertainty k = 0.564862
        24        25        29        28     9      180.000000        0.301515         4    ;  uncertainty k = 0.294190
        25        26        27        28     9        0.000000       -0.166202         1    ;  uncertainty k = 0.545528
        25        26        27        28     9      180.000000       24.643402         2    ;  uncertainty k = 0.370467
        25        26        27        28     9        0.000000       -9.208642         3    ;  uncertainty k = 1.490274
        25        26        27        28     9      180.000000        2.469490         4    ;  uncertainty k = 0.667844
        25        26        27        50     9        0.000000        0.008970         1    ;  uncertainty k = 0.825207
        25        26        27        50     9      180.000000       22.997246         2    ;  uncertainty k = 0.546071
        25        26        27        50     9        0.000000        1.394286         3    ;  uncertainty k = 0.447613
        25        26        27        50     9      180.000000        1.162255         4    ;  uncertainty k = 0.624572
        25        29        28        27     9        0.000000       -0.166202         1    ;  uncertainty k = 0.545528
        25        29        28        27     9      180.000000       24.643402         2    ;  uncertainty k = 0.370467
        25        29        28        27     9        0.000000       -9.208642         3    ;  uncertainty k = 1.490274
        25        29        28        27     9      180.000000        2.469490         4    ;  uncertainty k = 0.667844
        25        29        28        51     9        0.000000        0.008970         1    ;  uncertainty k = 0.825207
        25        29        28        51     9      180.000000       22.997246         2    ;  uncertainty k = 0.546071
        25        29        28        51     9        0.000000        1.394286         3    ;  uncertainty k = 0.447613
        25        29        28        51     9      180.000000        1.162255         4    ;  uncertainty k = 0.624572
        26        25        29        28     9        0.000000       -0.541638         1    ;  uncertainty k = 0.456790
        26        25        29        28     9      180.000000       21.907941         2    ;  uncertainty k = 0.322855
        26        25        29        28     9        0.000000       -7.757211         3    ;  uncertainty k = 0.867320
        26        25        29        28     9      180.000000        1.265553         4    ;  uncertainty k = 0.603193
        26        27        28        29     9        0.000000       -0.510242         1    ;  uncertainty k = 1.005663
        26        27        28        29     9      180.000000       16.162934         2    ;  uncertainty k = 1.354940
        26        27        28        29     9        0.000000      -11.656638         3    ;  uncertainty k = 1.975005
        26        27        28        29     9      180.000000        2.006056         4    ;  uncertainty k = 0.747322
        26        27        28        51     9        0.000000        0.025658         1    ;  uncertainty k = 1.100559
        26        27        28        51     9      180.000000       11.764149         2    ;  uncertainty k = 0.578353
        26        27        28        51     9        0.000000        0.952325         3    ;  uncertainty k = 0.726260
        26        27        28        51     9      180.000000        0.613430         4    ;  uncertainty k = 0.179220
        27        26        25        29     9        0.000000       -0.541638         1    ;  uncertainty k = 0.456790
        27        26        25        29     9      180.000000       21.907941         2    ;  uncertainty k = 0.322855
        27        26        25        29     9        0.000000       -7.757211         3    ;  uncertainty k = 0.867320
        27        26        25        29     9      180.000000        1.265553         4    ;  uncertainty k = 0.603193
        29        28        27        50     9        0.000000        0.025658         1    ;  uncertainty k = 1.100559
        29        28        27        50     9      180.000000       11.764149         2    ;  uncertainty k = 0.578353
        29        28        27        50     9        0.000000        0.952325         3    ;  uncertainty k = 0.726260
        29        28        27        50     9      180.000000        0.613430         4    ;  uncertainty k = 0.179220
        37        10        11        39     9        0.000000        0.359872         1    ;  uncertainty k = 0.316166
        37        10        11        39     9      180.000000       -0.360044         2    ;  uncertainty k = 0.197279
        37        10        11        39     9        0.000000        0.364903         3    ;  uncertainty k = 0.128583
        37        10        11        39     9      180.000000       -0.036803         4    ;  uncertainty k = 0.081429
        38        10        11        39     9        0.000000        0.359872         1    ;  uncertainty k = 0.316166
        38        10        11        39     9      180.000000       -0.360044         2    ;  uncertainty k = 0.197279
        38        10        11        39     9        0.000000        0.364903         3    ;  uncertainty k = 0.128583
        38        10        11        39     9      180.000000       -0.036803         4    ;  uncertainty k = 0.081429
        39        11        12        40     9        0.000000        0.423998         1    ;  uncertainty k = 0.297943
        39        11        12        40     9      180.000000       -0.322771         2    ;  uncertainty k = 0.253711
        39        11        12        40     9        0.000000        0.343158         3    ;  uncertainty k = 0.128710
        39        11        12        40     9      180.000000       -0.041305         4    ;  uncertainty k = 0.061986
        39        11        12        41     9        0.000000        0.423998         1    ;  uncertainty k = 0.297943
        39        11        12        41     9      180.000000       -0.322771         2    ;  uncertainty k = 0.253711
        39        11        12        41     9        0.000000        0.343158         3    ;  uncertainty k = 0.128710
        39        11        12        41     9      180.000000       -0.041305         4    ;  uncertainty k = 0.061986
        39        11        15        44     9        0.000000        3.534566         1    ;  uncertainty k = 1.183407
        39        11        15        44     9      180.000000       -0.219654         2    ;  uncertainty k = 0.641097
        39        11        15        44     9        0.000000        0.578188         3    ;  uncertainty k = 0.579178
        39        11        15        44     9      180.000000        0.212498         4    ;  uncertainty k = 0.291708
        42        14        15        44     9        0.000000        0.424000         1    ;  uncertainty k = 0.297943
        42        14        15        44     9      180.000000       -0.322771         2    ;  uncertainty k = 0.253710
        42        14        15        44     9        0.000000        0.343158         3    ;  uncertainty k = 0.128710
        42        14        15        44     9      180.000000       -0.041305         4    ;  uncertainty k = 0.061986
        43        14        15        44     9        0.000000        0.424000         1    ;  uncertainty k = 0.297943
        43        14        15        44     9      180.000000       -0.322771         2    ;  uncertainty k = 0.253710
        43        14        15        44     9        0.000000        0.343158         3    ;  uncertainty k = 0.128710
        43        14        15        44     9      180.000000       -0.041305         4    ;  uncertainty k = 0.061986
        44        15        16        45     9        0.000000        0.359873         1    ;  uncertainty k = 0.316165
        44        15        16        45     9      180.000000       -0.360044         2    ;  uncertainty k = 0.197281
        44        15        16        45     9        0.000000        0.364903         3    ;  uncertainty k = 0.128582
        44        15        16        45     9      180.000000       -0.036803         4    ;  uncertainty k = 0.081429
        44        15        16        46     9        0.000000        0.359873         1    ;  uncertainty k = 0.316165
        44        15        16        46     9      180.000000       -0.360044         2    ;  uncertainty k = 0.197281
        44        15        16        46     9        0.000000        0.364903         3    ;  uncertainty k = 0.128582
        44        15        16        46     9      180.000000       -0.036803         4    ;  uncertainty k = 0.081429
        47        20        21        48     9        0.000000       -0.257548         1    ;  uncertainty k = 0.274501
        47        20        21        48     9      180.000000        7.860267         2    ;  uncertainty k = 0.421831
        47        20        21        48     9        0.000000       -0.368149         3    ;  uncertainty k = 0.228660
        47        20        21        48     9      180.000000        0.202388         4    ;  uncertainty k = 0.168739
        48        21        22        49     9        0.000000       -0.279315         1    ;  uncertainty k = 0.216492
        48        21        22        49     9      180.000000        6.701049         2    ;  uncertainty k = 0.193164
        48        21        22        49     9        0.000000       -0.041354         3    ;  uncertainty k = 0.179644
        48        21        22        49     9      180.000000        0.241152         4    ;  uncertainty k = 0.091114
        50        27        28        51     9        0.000000       -0.863373         1    ;  uncertainty k = 1.145851
        50        27        28        51     9      180.000000        4.332821         2    ;  uncertainty k = 0.813390
        50        27        28        51     9        0.000000        1.344507         3    ;  uncertainty k = 0.356710
        50        27        28        51     9      180.000000        0.167834         4    ;  uncertainty k = 0.139721

[ dihedrals ] ; impropers
;       ai        aj        ak        al funct           phase               k        pn
         2         1         3         8     4      180.000000       31.911119         2    ;  uncertainty k = 0.074029
         2         3         8         1     4      180.000000       31.911119         2    ;  uncertainty k = 0.074029
         2         8         1         3     4      180.000000       31.911119         2    ;  uncertainty k = 0.074029
         3         2         4        33     4      180.000000        1.149578         2    ;  uncertainty k = 0.472322
         3         4        33         2     4      180.000000        1.149578         2    ;  uncertainty k = 0.472322
         3        33         2         4     4      180.000000        1.149578         2    ;  uncertainty k = 0.472322
         4         3         5         6     4      180.000000       31.911121         2    ;  uncertainty k = 0.074029
         4         5         6         3     4      180.000000       31.911121         2    ;  uncertainty k = 0.074029
         4         6         3         5     4      180.000000       31.911121         2    ;  uncertainty k = 0.074029
         7         6         8         9     4      180.000000       42.641370         2    ;  uncertainty k = 0.061085
         7         8         9         6     4      180.000000       42.641370         2    ;  uncertainty k = 0.061085
         7         9         6         8     4      180.000000       42.641370         2    ;  uncertainty k = 0.061085
         9         7        10        16     4      180.000000        0.056065         2    ;  uncertainty k = 0.081769
         9        10        16         7     4      180.000000        0.056065         2    ;  uncertainty k = 0.081769
         9        16         7        10     4      180.000000        0.056065         2    ;  uncertainty k = 0.081769
        17        13        18        19     4      180.000000       49.751338         2    ;  uncertainty k = 0.034836
        17        18        19        13     4      180.000000       49.751338         2    ;  uncertainty k = 0.034836
        17        19        13        18     4      180.000000       49.751338         2    ;  uncertainty k = 0.034836
        19        17        20        24     4      180.000000        8.925782         2    ;  uncertainty k = 0.222589
        19        20        24        17     4      180.000000        8.925782         2    ;  uncertainty k = 0.222589
        19        24        17        20     4      180.000000        8.925782         2    ;  uncertainty k = 0.222589
        20        19        21        47     4      180.000000        6.047900         2    ;  uncertainty k = 0.237501
        20        21        47        19     4      180.000000        6.047900         2    ;  uncertainty k = 0.237501
        20        47        19        21     4      180.000000        6.047900         2    ;  uncertainty k = 0.237501
        21        20        22        48     4      180.000000        2.395994         2    ;  uncertainty k = 0.392939
        21        22        48        20     4      180.000000        2.395994         2    ;  uncertainty k = 0.392939
        21        48        20        22     4      180.000000        2.395994         2    ;  uncertainty k = 0.392939
        22        21        23        49     4      180.000000       13.586941         2    ;  uncertainty k = 0.096727
        22        23        49        21     4      180.000000       13.586941         2    ;  uncertainty k = 0.096727
        22        49        21        23     4      180.000000       13.586941         2    ;  uncertainty k = 0.096727
        24        19        23        25     4      180.000000       20.420047         2    ;  uncertainty k = 0.086630
        24        23        25        19     4      180.000000       20.420047         2    ;  uncertainty k = 0.086630
        24        25        19        23     4      180.000000       20.420047         2    ;  uncertainty k = 0.086630
        27        26        28        50     4      180.000000        0.637632         2    ;  uncertainty k = 0.647258
        27        28        50        26     4      180.000000        0.637632         2    ;  uncertainty k = 0.647258
        27        50        26        28     4      180.000000        0.637632         2    ;  uncertainty k = 0.647258
        28        27        29        51     4      180.000000        0.637630         2    ;  uncertainty k = 0.647257
        28        29        51        27     4      180.000000        0.637630         2    ;  uncertainty k = 0.647257
        28        51        27        29     4      180.000000        0.637630         2    ;  uncertainty k = 0.647257

[ pairs ]
;       ai        aj funct
         1         4     1
         1         7     1
         1        33     1
         2         5     1
         2         6     1
         2         9     1
         3         7     1
         3        30     1
         3        31     1
         3        32     1
         3        34     1
         3        35     1
         3        36     1
         4         8     1
         4         9     1
         5         7     1
         5        33     1
         6        10     1
         6        16     1
         6        33     1
         6        34     1
         6        35     1
         6        36     1
         7        11     1
         7        15     1
         7        37     1
         7        38     1
         7        45     1
         7        46     1
         8        10     1
         8        16     1
         8        30     1
         8        31     1
         8        32     1
         8        33     1
         9        12     1
         9        14     1
         9        39     1
         9        44     1
        10        13     1
        10        14     1
        10        40     1
        10        41     1
        10        44     1
        10        45     1
        10        46     1
        11        17     1
        11        42     1
        11        43     1
        11        45     1
        11        46     1
        12        16     1
        12        18     1
        12        19     1
        12        37     1
        12        38     1
        12        42     1
        12        43     1
        12        44     1
        13        16     1
        13        20     1
        13        24     1
        13        39     1
        13        44     1
        14        18     1
        14        19     1
        14        39     1
        14        40     1
        14        41     1
        14        45     1
        14        46     1
        15        17     1
        15        37     1
        15        38     1
        15        40     1
        15        41     1
        16        37     1
        16        38     1
        16        39     1
        16        42     1
        16        43     1
        17        21     1
        17        23     1
        17        25     1
        17        40     1
        17        41     1
        17        42     1
        17        43     1
        17        47     1
        18        20     1
        18        24     1
        19        22     1
        19        26     1
        19        29     1
        19        48     1
        20        23     1
        20        25     1
        20        49     1
        21        24     1
        22        25     1
        22        47     1
        23        26     1
        23        29     1
        23        48     1
        24        27     1
        24        28     1
        24        47     1
        24        49     1
        25        50     1
        25        51     1
        26        51     1
        29        50     1
        37        39     1
        38        39     1
        39        40     1
        39        41     1
        39        44     1
        42        44     1
        43        44     1
        44        45     1
        44        46     1
        47        48     1
        48        49     1
        50        51     1
