; ITP file created by ByteFF-joint-25, 2025-07-14 11:28:40.104565

[ atomtypes ]
;name           bonded.type        at.num        mass        charge   ptype           sigma         epsilon
 c0bf                                   6      0.0000       0.00000       A     3.39771e-01     4.50892e-01    ;  uncertainty sigma = 0.000002, epsilon = 0.000828
 c1bf                                   6      0.0000       0.00000       A     3.31527e-01     4.12913e-01    ;  uncertainty sigma = 0.000009, epsilon = 0.000569
 n2bf                                   7      0.0000       0.00000       A     3.38421e-01     3.93801e-01    ;  uncertainty sigma = 0.000013, epsilon = 0.000830
 c3bf                                   6      0.0000       0.00000       A     3.31543e-01     4.13354e-01    ;  uncertainty sigma = 0.000011, epsilon = 0.000209
 n4bf                                   7      0.0000       0.00000       A     3.38411e-01     3.93696e-01    ;  uncertainty sigma = 0.000017, epsilon = 0.000965
 c5bf                                   6      0.0000       0.00000       A     3.31552e-01     4.13278e-01    ;  uncertainty sigma = 0.000011, epsilon = 0.000758
 c6bf                                   6      0.0000       0.00000       A     3.39768e-01     4.50581e-01    ;  uncertainty sigma = 0.000008, epsilon = 0.001279
 c7bf                                   6      0.0000       0.00000       A     3.39802e-01     4.50665e-01    ;  uncertainty sigma = 0.000014, epsilon = 0.000655
 c8bf                                   6      0.0000       0.00000       A     3.39764e-01     4.50926e-01    ;  uncertainty sigma = 0.000005, epsilon = 0.000534
 c9bf                                   6      0.0000       0.00000       A     3.31568e-01     4.12737e-01    ;  uncertainty sigma = 0.000016, epsilon = 0.000922
 n10bf                                  7      0.0000       0.00000       A     3.18925e-01     8.99806e-01    ;  uncertainty sigma = 0.000059, epsilon = 0.003167
 c11bf                                  6      0.0000       0.00000       A     3.39774e-01     4.50962e-01    ;  uncertainty sigma = 0.000013, epsilon = 0.001186
 c12bf                                  6      0.0000       0.00000       A     3.39776e-01     4.51373e-01    ;  uncertainty sigma = 0.000009, epsilon = 0.000969
 c13bf                                  6      0.0000       0.00000       A     3.39784e-01     4.51219e-01    ;  uncertainty sigma = 0.000006, epsilon = 0.000696
 n14bf                                  7      0.0000       0.00000       A     3.18086e-01     6.84039e-01    ;  uncertainty sigma = 0.000014, epsilon = 0.001467
 c15bf                                  6      0.0000       0.00000       A     3.39784e-01     4.51219e-01    ;  uncertainty sigma = 0.000006, epsilon = 0.000696
 c16bf                                  6      0.0000       0.00000       A     3.39776e-01     4.51373e-01    ;  uncertainty sigma = 0.000009, epsilon = 0.000969
 c17bf                                  6      0.0000       0.00000       A     3.39774e-01     4.50962e-01    ;  uncertainty sigma = 0.000013, epsilon = 0.001187
 c18bf                                  6      0.0000       0.00000       A     3.31486e-01     4.13134e-01    ;  uncertainty sigma = 0.000026, epsilon = 0.002146
 o19bf                                  8      0.0000       0.00000       A     3.04851e-01     6.12019e-01    ;  uncertainty sigma = 0.000026, epsilon = 0.001020
 c20bf                                  6      0.0000       0.00000       A     3.31488e-01     4.12415e-01    ;  uncertainty sigma = 0.000034, epsilon = 0.001171
 c21bf                                  6      0.0000       0.00000       A     3.31513e-01     4.12834e-01    ;  uncertainty sigma = 0.000016, epsilon = 0.001291
 f22bf                                  9      0.0000       0.00000       A     3.03451e-01     3.47872e-01    ;  uncertainty sigma = 0.000029, epsilon = 0.000470
 c23bf                                  6      0.0000       0.00000       A     3.31522e-01     4.13335e-01    ;  uncertainty sigma = 0.000005, epsilon = 0.000662
 c24bf                                  6      0.0000       0.00000       A     3.31521e-01     4.13421e-01    ;  uncertainty sigma = 0.000006, epsilon = 0.000781
 c25bf                                  6      0.0000       0.00000       A     3.31510e-01     4.13240e-01    ;  uncertainty sigma = 0.000014, epsilon = 0.000923
 c26bf                                  6      0.0000       0.00000       A     3.31553e-01     4.13601e-01    ;  uncertainty sigma = 0.000013, epsilon = 0.001582
 n27bf                                  7      0.0000       0.00000       A     3.20569e-01     8.54049e-01    ;  uncertainty sigma = 0.000030, epsilon = 0.002792
 n28bf                                  7      0.0000       0.00000       A     3.38413e-01     3.93694e-01    ;  uncertainty sigma = 0.000010, epsilon = 0.000693
 c29bf                                  6      0.0000       0.00000       A     3.31537e-01     4.13587e-01    ;  uncertainty sigma = 0.000007, epsilon = 0.000835
 c30bf                                  6      0.0000       0.00000       A     3.31537e-01     4.13587e-01    ;  uncertainty sigma = 0.000007, epsilon = 0.000835
 n31bf                                  7      0.0000       0.00000       A     3.38413e-01     3.93694e-01    ;  uncertainty sigma = 0.000010, epsilon = 0.000693
 h32bf                                  1      0.0000       0.00000       A     2.60035e-01     8.66618e-02    ;  uncertainty sigma = 0.000008, epsilon = 0.000547
 h33bf                                  1      0.0000       0.00000       A     2.60035e-01     8.66618e-02    ;  uncertainty sigma = 0.000008, epsilon = 0.000547
 h34bf                                  1      0.0000       0.00000       A     2.60035e-01     8.66618e-02    ;  uncertainty sigma = 0.000008, epsilon = 0.000547
 h35bf                                  1      0.0000       0.00000       A     2.60022e-01     8.67625e-02    ;  uncertainty sigma = 0.000023, epsilon = 0.000614
 h36bf                                  1      0.0000       0.00000       A     2.60022e-01     8.67625e-02    ;  uncertainty sigma = 0.000023, epsilon = 0.000614
 h37bf                                  1      0.0000       0.00000       A     2.60010e-01     8.66545e-02    ;  uncertainty sigma = 0.000019, epsilon = 0.000639
 h38bf                                  1      0.0000       0.00000       A     2.60010e-01     8.66545e-02    ;  uncertainty sigma = 0.000019, epsilon = 0.000639
 h39bf                                  1      0.0000       0.00000       A     2.60057e-01     8.69902e-02    ;  uncertainty sigma = 0.000012, epsilon = 0.000679
 h40bf                                  1      0.0000       0.00000       A     2.60057e-01     8.69902e-02    ;  uncertainty sigma = 0.000012, epsilon = 0.000679
 h41bf                                  1      0.0000       0.00000       A     2.42199e-01     8.66324e-02    ;  uncertainty sigma = 0.000024, epsilon = 0.001250
 h42bf                                  1      0.0000       0.00000       A     2.42199e-01     8.66324e-02    ;  uncertainty sigma = 0.000024, epsilon = 0.001250
 h43bf                                  1      0.0000       0.00000       A     2.59994e-01     8.68892e-02    ;  uncertainty sigma = 0.000026, epsilon = 0.000553
 h44bf                                  1      0.0000       0.00000       A     2.42194e-01     8.66543e-02    ;  uncertainty sigma = 0.000021, epsilon = 0.000863
 h45bf                                  1      0.0000       0.00000       A     2.42194e-01     8.66543e-02    ;  uncertainty sigma = 0.000021, epsilon = 0.000863
 h46bf                                  1      0.0000       0.00000       A     2.42194e-01     8.66545e-02    ;  uncertainty sigma = 0.000021, epsilon = 0.000863
 h47bf                                  1      0.0000       0.00000       A     2.42194e-01     8.66545e-02    ;  uncertainty sigma = 0.000021, epsilon = 0.000863
 h48bf                                  1      0.0000       0.00000       A     2.59994e-01     8.68892e-02    ;  uncertainty sigma = 0.000026, epsilon = 0.000553
 h49bf                                  1      0.0000       0.00000       A     2.42199e-01     8.66324e-02    ;  uncertainty sigma = 0.000024, epsilon = 0.001250
 h50bf                                  1      0.0000       0.00000       A     2.42199e-01     8.66324e-02    ;  uncertainty sigma = 0.000024, epsilon = 0.001250
 h51bf                                  1      0.0000       0.00000       A     2.62565e-01     6.70682e-02    ;  uncertainty sigma = 0.000010, epsilon = 0.000430
 h52bf                                  1      0.0000       0.00000       A     2.62565e-01     6.69658e-02    ;  uncertainty sigma = 0.000011, epsilon = 0.000532
 h53bf                                  1      0.0000       0.00000       A     2.62555e-01     6.71502e-02    ;  uncertainty sigma = 0.000013, epsilon = 0.000465
 h54bf                                  1      0.0000       0.00000       A     2.53604e-01     6.70805e-02    ;  uncertainty sigma = 0.000028, epsilon = 0.000600
 h55bf                                  1      0.0000       0.00000       A     2.53604e-01     6.70805e-02    ;  uncertainty sigma = 0.000028, epsilon = 0.000600

[ moleculetype ]
;name             nrexcl
 MOL                   3

[ atoms ]
;       nr            type      resi   res      atom      cgnr      charge          mass ; qtot
         1            c0bf         1   UNL        c0         1    -0.15159       12.0110 ; qtot   -0.152
         2            c1bf         1   UNL        c1         2     0.49916       12.0110 ; qtot    0.348
         3            n2bf         1   UNL        n2         3    -0.77640       14.0070 ; qtot   -0.429
         4            c3bf         1   UNL        c3         4     0.90415       12.0110 ; qtot    0.475
         5            n4bf         1   UNL        n4         5    -0.76019       14.0070 ; qtot   -0.285
         6            c5bf         1   UNL        c5         6     0.47349       12.0110 ; qtot    0.189
         7            c6bf         1   UNL        c6         7    -0.13800       12.0110 ; qtot    0.051
         8            c7bf         1   UNL        c7         8    -0.08095       12.0110 ; qtot   -0.030
         9            c8bf         1   UNL        c8         9    -0.01649       12.0110 ; qtot   -0.047
        10            c9bf         1   UNL        c9        10    -0.37184       12.0110 ; qtot   -0.419
        11           n10bf         1   UNL       n10        11    -0.78789       14.0070 ; qtot   -1.207
        12           c11bf         1   UNL       c11        12     0.23371       12.0110 ; qtot   -0.973
        13           c12bf         1   UNL       c12        13    -0.09741       12.0110 ; qtot   -1.070
        14           c13bf         1   UNL       c13        14     0.11057       12.0110 ; qtot   -0.960
        15           n14bf         1   UNL       n14        15    -0.47239       14.0070 ; qtot   -1.432
        16           c15bf         1   UNL       c15        16     0.11057       12.0110 ; qtot   -1.321
        17           c16bf         1   UNL       c16        17    -0.09741       12.0110 ; qtot   -1.419
        18           c17bf         1   UNL       c17        18     0.23371       12.0110 ; qtot   -1.185
        19           c18bf         1   UNL       c18        19     0.70764       12.0110 ; qtot   -0.478
        20           o19bf         1   UNL       o19        20    -0.58293       15.9990 ; qtot   -1.060
        21           c20bf         1   UNL       c20        21    -0.15596       12.0110 ; qtot   -1.216
        22           c21bf         1   UNL       c21        22     0.16292       12.0110 ; qtot   -1.054
        23           f22bf         1   UNL       f22        23    -0.13494       18.9980 ; qtot   -1.188
        24           c23bf         1   UNL       c23        24    -0.15817       12.0110 ; qtot   -1.347
        25           c24bf         1   UNL       c24        25    -0.08197       12.0110 ; qtot   -1.429
        26           c25bf         1   UNL       c25        26    -0.13048       12.0110 ; qtot   -1.559
        27           c26bf         1   UNL       c26        27     0.07222       12.0110 ; qtot   -1.487
        28           n27bf         1   UNL       n27        28     0.30201       14.0070 ; qtot   -1.185
        29           n28bf         1   UNL       n28        29    -0.47243       14.0070 ; qtot   -1.657
        30           c29bf         1   UNL       c29        30     0.20275       12.0110 ; qtot   -1.455
        31           c30bf         1   UNL       c30        31     0.20275       12.0110 ; qtot   -1.252
        32           n31bf         1   UNL       n31        32    -0.47243       14.0070 ; qtot   -1.724
        33           h32bf         1   UNL       h32        33     0.05870        1.0080 ; qtot   -1.666
        34           h33bf         1   UNL       h33        34     0.05870        1.0080 ; qtot   -1.607
        35           h34bf         1   UNL       h34        35     0.05870        1.0080 ; qtot   -1.548
        36           h35bf         1   UNL       h35        36     0.06860        1.0080 ; qtot   -1.480
        37           h36bf         1   UNL       h36        37     0.06860        1.0080 ; qtot   -1.411
        38           h37bf         1   UNL       h37        38     0.04883        1.0080 ; qtot   -1.362
        39           h38bf         1   UNL       h38        39     0.04883        1.0080 ; qtot   -1.313
        40           h39bf         1   UNL       h39        40     0.05887        1.0080 ; qtot   -1.254
        41           h40bf         1   UNL       h40        41     0.05887        1.0080 ; qtot   -1.196
        42           h41bf         1   UNL       h41        42     0.05847        1.0080 ; qtot   -1.137
        43           h42bf         1   UNL       h42        43     0.05847        1.0080 ; qtot   -1.079
        44           h43bf         1   UNL       h43        44     0.07237        1.0080 ; qtot   -1.006
        45           h44bf         1   UNL       h44        45     0.05981        1.0080 ; qtot   -0.946
        46           h45bf         1   UNL       h45        46     0.05981        1.0080 ; qtot   -0.887
        47           h46bf         1   UNL       h46        47     0.05981        1.0080 ; qtot   -0.827
        48           h47bf         1   UNL       h47        48     0.05981        1.0080 ; qtot   -0.767
        49           h48bf         1   UNL       h48        49     0.07237        1.0080 ; qtot   -0.695
        50           h49bf         1   UNL       h49        50     0.05847        1.0080 ; qtot   -0.636
        51           h50bf         1   UNL       h50        51     0.05847        1.0080 ; qtot   -0.578
        52           h51bf         1   UNL       h51        52     0.15846        1.0080 ; qtot   -0.419
        53           h52bf         1   UNL       h52        53     0.14574        1.0080 ; qtot   -0.273
        54           h53bf         1   UNL       h53        54     0.16350        1.0080 ; qtot   -0.110
        55           h54bf         1   UNL       h54        55     0.05496        1.0080 ; qtot   -0.055
        56           h55bf         1   UNL       h55        56     0.05500        1.0080 ; qtot    0.000

[ bonds ]
;       ai        aj funct               r               k
         1         2     1        0.150517   248635.017187    ;  uncertainty r = 0.000017, k = 6.939794
         1        33     1        0.109452   310711.873975    ;  uncertainty r = 0.000013, k = 1.735297
         1        34     1        0.109452   310711.873975    ;  uncertainty r = 0.000013, k = 1.735297
         1        35     1        0.109452   310711.873975    ;  uncertainty r = 0.000013, k = 1.735297
         2         3     1        0.134782   439317.854883    ;  uncertainty r = 0.000080, k = 12.428680
         2        10     1        0.139886   402942.362158    ;  uncertainty r = 0.000135, k = 17.462437
         3         4     1        0.135535   498235.796777    ;  uncertainty r = 0.000137, k = 15.019820
         4         5     1        0.135668   486235.296191    ;  uncertainty r = 0.000064, k = 15.992652
         4        11     1        0.136600   317214.464746    ;  uncertainty r = 0.000104, k = 21.629665
         5         6     1        0.133631   466501.035254    ;  uncertainty r = 0.000124, k = 19.561522
         6         7     1        0.151273   274707.460986    ;  uncertainty r = 0.000045, k = 12.935649
         6        10     1        0.140004   422637.168262    ;  uncertainty r = 0.000205, k = 7.502997
         7         8     1        0.155098   218410.750146    ;  uncertainty r = 0.000029, k = 8.207065
         7        36     1        0.109568   309357.155859    ;  uncertainty r = 0.000047, k = 1.205170
         7        37     1        0.109568   309357.155859    ;  uncertainty r = 0.000047, k = 1.205170
         8         9     1        0.155700   217385.716113    ;  uncertainty r = 0.000059, k = 5.217416
         8        38     1        0.109394   307057.845605    ;  uncertainty r = 0.000024, k = 2.476551
         8        39     1        0.109394   307057.845605    ;  uncertainty r = 0.000024, k = 2.476551
         9        10     1        0.151177   270196.534912    ;  uncertainty r = 0.000092, k = 22.776848
         9        40     1        0.109606   306957.408154    ;  uncertainty r = 0.000024, k = 1.676959
         9        41     1        0.109606   306957.408154    ;  uncertainty r = 0.000024, k = 1.676959
        11        12     1        0.146388   222507.030176    ;  uncertainty r = 0.000046, k = 14.402492
        11        18     1        0.146388   222507.030176    ;  uncertainty r = 0.000046, k = 14.402478
        12        13     1        0.153373   218221.596777    ;  uncertainty r = 0.000068, k = 6.574306
        12        42     1        0.109554   306529.533887    ;  uncertainty r = 0.000069, k = 2.629954
        12        43     1        0.109554   306529.533887    ;  uncertainty r = 0.000069, k = 2.629954
        13        14     1        0.153480   216617.049121    ;  uncertainty r = 0.000023, k = 7.412723
        13        17     1        0.154451   200722.496875    ;  uncertainty r = 0.000080, k = 20.796785
        13        44     1        0.109350   305021.261133    ;  uncertainty r = 0.000029, k = 3.829702
        14        15     1        0.146976   241154.380664    ;  uncertainty r = 0.000047, k = 15.575172
        14        45     1        0.109439   307434.875488    ;  uncertainty r = 0.000026, k = 1.171544
        14        46     1        0.109439   307434.875488    ;  uncertainty r = 0.000026, k = 1.171544
        15        16     1        0.146976   241154.380664    ;  uncertainty r = 0.000047, k = 15.575144
        15        19     1        0.135088   335723.021045    ;  uncertainty r = 0.000166, k = 15.024462
        16        17     1        0.153480   216617.074658    ;  uncertainty r = 0.000023, k = 7.412680
        16        47     1        0.109439   307434.875488    ;  uncertainty r = 0.000026, k = 1.171521
        16        48     1        0.109439   307434.875488    ;  uncertainty r = 0.000026, k = 1.171521
        17        18     1        0.153373   218221.596777    ;  uncertainty r = 0.000068, k = 6.574326
        17        49     1        0.109350   305021.261133    ;  uncertainty r = 0.000029, k = 3.829660
        18        50     1        0.109554   306529.610498    ;  uncertainty r = 0.000069, k = 2.629968
        18        51     1        0.109554   306529.610498    ;  uncertainty r = 0.000069, k = 2.629968
        19        20     1        0.123492   739384.865723    ;  uncertainty r = 0.000039, k = 10.151716
        19        21     1        0.151093   272101.603271    ;  uncertainty r = 0.000079, k = 31.154101
        21        22     1        0.139399   331888.649609    ;  uncertainty r = 0.000087, k = 16.801357
        21        27     1        0.139529   322378.221484    ;  uncertainty r = 0.000112, k = 6.618765
        22        23     1        0.135284   339697.693359    ;  uncertainty r = 0.000139, k = 6.883764
        22        24     1        0.138876   355374.082080    ;  uncertainty r = 0.000029, k = 4.848304
        24        25     1        0.139230   385818.044873    ;  uncertainty r = 0.000031, k = 3.156029
        24        52     1        0.108754   335743.833789    ;  uncertainty r = 0.000014, k = 1.461762
        25        26     1        0.139117   371572.781299    ;  uncertainty r = 0.000042, k = 2.923689
        25        53     1        0.108705   332118.687891    ;  uncertainty r = 0.000011, k = 1.593644
        26        27     1        0.139176   333973.831201    ;  uncertainty r = 0.000089, k = 2.958672
        26        54     1        0.108623   333131.336426    ;  uncertainty r = 0.000019, k = 1.837628
        27        28     1        0.140554   317671.476855    ;  uncertainty r = 0.000102, k = 8.472881
        28        29     1        0.134456   229486.015723    ;  uncertainty r = 0.000080, k = 10.859863
        28        32     1        0.134456   229486.015723    ;  uncertainty r = 0.000080, k = 10.859863
        29        30     1        0.132965   463550.937305    ;  uncertainty r = 0.000052, k = 7.730519
        30        31     1        0.141781   249584.001709    ;  uncertainty r = 0.000103, k = 15.332670
        30        55     1        0.108418   339910.136572    ;  uncertainty r = 0.000037, k = 1.124302
        31        32     1        0.132965   463550.937305    ;  uncertainty r = 0.000052, k = 7.730519
        31        56     1        0.108418   339910.136572    ;  uncertainty r = 0.000037, k = 1.124299

[ angles ]
;       ai        aj        ak funct           theta             cth
         1         2         3     1      119.229088      521.555302    ;  uncertainty theta = 0.002304, k = 0.224526
         1         2        10     1      122.115784      395.434924    ;  uncertainty theta = 0.003675, k = 0.241706
         2         1        33     1      109.073692      387.607609    ;  uncertainty theta = 0.001493, k = 0.063898
         2         1        34     1      109.073692      387.607609    ;  uncertainty theta = 0.001493, k = 0.063898
         2         1        35     1      109.073692      387.607609    ;  uncertainty theta = 0.001493, k = 0.063898
         2         3         4     1      118.438980      426.545891    ;  uncertainty theta = 0.008109, k = 0.182756
         2        10         6     1      116.322731      405.400941    ;  uncertainty theta = 0.008706, k = 0.112510
         2        10         9     1      129.354156      371.905926    ;  uncertainty theta = 0.003628, k = 0.103448
         3         2        10     1      120.364647      648.617743    ;  uncertainty theta = 0.004874, k = 0.188302
         3         4         5     1      128.849762      706.966591    ;  uncertainty theta = 0.005795, k = 0.184618
         3         4        11     1      119.438660      530.623593    ;  uncertainty theta = 0.006629, k = 0.277198
         4         5         6     1      112.735733      435.948272    ;  uncertainty theta = 0.005636, k = 0.174640
         4        11        12     1      113.744751      433.611083    ;  uncertainty theta = 0.004116, k = 0.246275
         4        11        18     1      113.744751      433.611020    ;  uncertainty theta = 0.004116, k = 0.246275
         5         4        11     1      119.210533      544.090269    ;  uncertainty theta = 0.007611, k = 0.138523
         5         6         7     1      125.474716      443.309343    ;  uncertainty theta = 0.004728, k = 0.199989
         5         6        10     1      122.502396      631.342846    ;  uncertainty theta = 0.005581, k = 0.197335
         6         7         8     1      104.232948      761.067148    ;  uncertainty theta = 0.002665, k = 0.326313
         6         7        36     1      109.469017      387.565760    ;  uncertainty theta = 0.000885, k = 0.042941
         6         7        37     1      109.469017      387.565760    ;  uncertainty theta = 0.000885, k = 0.042941
         6        10         9     1      114.607262      533.338635    ;  uncertainty theta = 0.005559, k = 0.112224
         7         6        10     1      115.747169      509.551647    ;  uncertainty theta = 0.004991, k = 0.326238
         7         8         9     1      106.923813      718.847603    ;  uncertainty theta = 0.001809, k = 0.032737
         7         8        38     1      109.112961      417.052056    ;  uncertainty theta = 0.001230, k = 0.037513
         7         8        39     1      109.112961      417.052056    ;  uncertainty theta = 0.001230, k = 0.037513
         8         7        36     1      110.149841      394.399267    ;  uncertainty theta = 0.002658, k = 0.042741
         8         7        37     1      110.149841      394.399267    ;  uncertainty theta = 0.002658, k = 0.042741
         8         9        10     1      104.517960      754.440269    ;  uncertainty theta = 0.001400, k = 0.082641
         8         9        40     1      109.710449      401.559074    ;  uncertainty theta = 0.001483, k = 0.030445
         8         9        41     1      109.710449      401.559074    ;  uncertainty theta = 0.001483, k = 0.030445
         9         8        38     1      109.200760      417.260981    ;  uncertainty theta = 0.001367, k = 0.065321
         9         8        39     1      109.200760      417.260981    ;  uncertainty theta = 0.001367, k = 0.065321
        10         9        40     1      110.228981      398.100871    ;  uncertainty theta = 0.001027, k = 0.112614
        10         9        41     1      110.228981      398.100871    ;  uncertainty theta = 0.001027, k = 0.112614
        11        12        13     1      105.584312      833.734015    ;  uncertainty theta = 0.001756, k = 0.103813
        11        12        42     1      108.587280      455.402697    ;  uncertainty theta = 0.001217, k = 0.064031
        11        12        43     1      108.587280      455.402697    ;  uncertainty theta = 0.001217, k = 0.064031
        11        18        17     1      105.584312      833.734015    ;  uncertainty theta = 0.001756, k = 0.103813
        11        18        50     1      108.587265      455.402697    ;  uncertainty theta = 0.001217, k = 0.064032
        11        18        51     1      108.587265      455.402697    ;  uncertainty theta = 0.001217, k = 0.064032
        12        11        18     1      112.629349      482.501113    ;  uncertainty theta = 0.009842, k = 0.310144
        12        13        14     1      113.001137      496.194877    ;  uncertainty theta = 0.003011, k = 0.272742
        12        13        17     1      106.405563      696.124109    ;  uncertainty theta = 0.000791, k = 0.125666
        12        13        44     1      108.925560      387.554172    ;  uncertainty theta = 0.002411, k = 0.194097
        13        12        42     1      109.938087      401.790664    ;  uncertainty theta = 0.001744, k = 0.043995
        13        12        43     1      109.938087      401.790664    ;  uncertainty theta = 0.001744, k = 0.043995
        13        14        15     1      106.005104      800.142884    ;  uncertainty theta = 0.002837, k = 0.185313
        13        14        45     1      109.812805      398.157914    ;  uncertainty theta = 0.002056, k = 0.096133
        13        14        46     1      109.812805      398.157914    ;  uncertainty theta = 0.002056, k = 0.096133
        13        17        16     1      106.536072      683.535718    ;  uncertainty theta = 0.002057, k = 0.120116
        13        17        18     1      106.405563      696.124172    ;  uncertainty theta = 0.000791, k = 0.125666
        13        17        49     1      109.787766      408.249925    ;  uncertainty theta = 0.001833, k = 0.098421
        14        13        17     1      106.536072      683.535654    ;  uncertainty theta = 0.002057, k = 0.120117
        14        13        44     1      108.976547      381.109245    ;  uncertainty theta = 0.002391, k = 0.150517
        14        15        16     1      114.311745      540.101883    ;  uncertainty theta = 0.003229, k = 0.142692
        14        15        19     1      117.974327      368.182647    ;  uncertainty theta = 0.003980, k = 0.157584
        15        14        45     1      109.203384      457.892789    ;  uncertainty theta = 0.001598, k = 0.109127
        15        14        46     1      109.203384      457.892789    ;  uncertainty theta = 0.001598, k = 0.109127
        15        16        17     1      106.005104      800.142884    ;  uncertainty theta = 0.002837, k = 0.185312
        15        16        47     1      109.203384      457.892789    ;  uncertainty theta = 0.001598, k = 0.109127
        15        16        48     1      109.203384      457.892789    ;  uncertainty theta = 0.001598, k = 0.109127
        15        19        20     1      124.922256      740.345444    ;  uncertainty theta = 0.002458, k = 0.115631
        15        19        21     1      112.159889      368.733068    ;  uncertainty theta = 0.002788, k = 0.265066
        16        15        19     1      117.974327      368.182647    ;  uncertainty theta = 0.003980, k = 0.157584
        16        17        18     1      113.001137      496.194814    ;  uncertainty theta = 0.003011, k = 0.272742
        16        17        49     1      108.976547      381.109245    ;  uncertainty theta = 0.002391, k = 0.150517
        17        13        44     1      109.787766      408.249925    ;  uncertainty theta = 0.001833, k = 0.098421
        17        16        47     1      109.812805      398.157914    ;  uncertainty theta = 0.002056, k = 0.096133
        17        16        48     1      109.812805      398.157914    ;  uncertainty theta = 0.002056, k = 0.096133
        17        18        50     1      109.938087      401.790696    ;  uncertainty theta = 0.001744, k = 0.043995
        17        18        51     1      109.938087      401.790696    ;  uncertainty theta = 0.001744, k = 0.043995
        18        17        49     1      108.925560      387.554172    ;  uncertainty theta = 0.002411, k = 0.194096
        19        21        22     1      122.644753      394.633059    ;  uncertainty theta = 0.009716, k = 0.281698
        19        21        27     1      121.727440      360.483272    ;  uncertainty theta = 0.007459, k = 0.258991
        20        19        21     1      123.973495      474.716636    ;  uncertainty theta = 0.004986, k = 0.295298
        21        22        23     1      116.293533      481.718082    ;  uncertainty theta = 0.003628, k = 0.151958
        21        22        24     1      125.257851      358.228537    ;  uncertainty theta = 0.006392, k = 0.161234
        21        27        26     1      126.248352      383.964293    ;  uncertainty theta = 0.008470, k = 0.143041
        21        27        28     1      115.625549      424.401189    ;  uncertainty theta = 0.005276, k = 0.425221
        22        21        27     1      120.519875      451.018997    ;  uncertainty theta = 0.010533, k = 0.145475
        22        24        25     1      116.906998      480.293111    ;  uncertainty theta = 0.004692, k = 0.077746
        22        24        52     1      120.257713      280.421849    ;  uncertainty theta = 0.001644, k = 0.051464
        23        22        24     1      119.307655      515.150978    ;  uncertainty theta = 0.004276, k = 0.124646
        24        25        26     1      119.580154      501.480038    ;  uncertainty theta = 0.001152, k = 0.050795
        24        25        53     1      120.085129      283.076623    ;  uncertainty theta = 0.000551, k = 0.029815
        25        24        52     1      122.091469      282.690757    ;  uncertainty theta = 0.001292, k = 0.025850
        25        26        27     1      119.295853      511.815512    ;  uncertainty theta = 0.002200, k = 0.078353
        25        26        54     1      121.511391      292.121324    ;  uncertainty theta = 0.001401, k = 0.054323
        26        25        53     1      119.901108      278.613917    ;  uncertainty theta = 0.000633, k = 0.016225
        26        27        28     1      118.568016      453.799094    ;  uncertainty theta = 0.002843, k = 0.118727
        27        26        54     1      118.140259      263.598991    ;  uncertainty theta = 0.002697, k = 0.141621
        27        28        29     1      116.169716      430.317850    ;  uncertainty theta = 0.006654, k = 0.182017
        27        28        32     1      116.169716      430.317850    ;  uncertainty theta = 0.006654, k = 0.182017
        28        29        30     1      105.336914      920.571231    ;  uncertainty theta = 0.004509, k = 0.170853
        28        32        31     1      105.336914      920.571231    ;  uncertainty theta = 0.004509, k = 0.170853
        29        28        32     1      113.935104     1160.946488    ;  uncertainty theta = 0.004391, k = 0.191360
        29        30        31     1      108.874611      885.375796    ;  uncertainty theta = 0.003815, k = 0.097431
        29        30        55     1      119.790878      274.219077    ;  uncertainty theta = 0.003825, k = 0.115835
        30        31        32     1      108.874611      885.375796    ;  uncertainty theta = 0.003815, k = 0.097431
        30        31        56     1      127.065445      242.460712    ;  uncertainty theta = 0.004115, k = 0.077998
        31        30        55     1      127.065445      242.460712    ;  uncertainty theta = 0.004115, k = 0.077998
        32        31        56     1      119.790878      274.219077    ;  uncertainty theta = 0.003825, k = 0.115835
        33         1        34     1      107.130348      313.056072    ;  uncertainty theta = 0.001865, k = 0.026776
        33         1        35     1      107.130348      313.056072    ;  uncertainty theta = 0.001865, k = 0.026776
        34         1        35     1      107.130348      313.056072    ;  uncertainty theta = 0.001865, k = 0.026776
        36         7        37     1      104.854446      294.076477    ;  uncertainty theta = 0.001971, k = 0.032185
        38         8        39     1      105.315414      314.233684    ;  uncertainty theta = 0.003948, k = 0.110141
        40         9        41     1      104.335831      295.688507    ;  uncertainty theta = 0.001341, k = 0.090837
        42        12        43     1      105.113747      312.145291    ;  uncertainty theta = 0.002379, k = 0.116871
        45        14        46     1      105.371437      309.387890    ;  uncertainty theta = 0.003860, k = 0.079571
        47        16        48     1      105.371437      309.387890    ;  uncertainty theta = 0.003860, k = 0.079571
        50        18        51     1      105.113747      312.145323    ;  uncertainty theta = 0.002379, k = 0.116871

[ dihedrals ] ; propers for gromacs 4.5 or higher, use funct 9
;       ai        aj        ak        al funct           phase               k        pn
         1         2         3         4     9        0.000000        0.362037         1    ;  uncertainty k = 0.607101
         1         2         3         4     9      180.000000       15.321100         2    ;  uncertainty k = 0.613668
         1         2         3         4     9        0.000000        2.491928         3    ;  uncertainty k = 0.407856
         1         2         3         4     9      180.000000        1.780814         4    ;  uncertainty k = 0.344117
         1         2        10         6     9        0.000000       -0.115045         1    ;  uncertainty k = 0.938833
         1         2        10         6     9      180.000000        6.699503         2    ;  uncertainty k = 0.318871
         1         2        10         6     9        0.000000        0.677517         3    ;  uncertainty k = 0.272898
         1         2        10         6     9      180.000000        1.117196         4    ;  uncertainty k = 0.152799
         1         2        10         9     9        0.000000       -0.421047         1    ;  uncertainty k = 0.990362
         1         2        10         9     9      180.000000        6.572937         2    ;  uncertainty k = 0.453832
         1         2        10         9     9        0.000000        0.975782         3    ;  uncertainty k = 0.256851
         1         2        10         9     9      180.000000        0.932006         4    ;  uncertainty k = 0.356554
         2         3         4         5     9        0.000000       -0.327139         1    ;  uncertainty k = 0.578188
         2         3         4         5     9      180.000000        8.969323         2    ;  uncertainty k = 0.589322
         2         3         4         5     9        0.000000        0.827008         3    ;  uncertainty k = 0.574617
         2         3         4         5     9      180.000000        0.845626         4    ;  uncertainty k = 0.098255
         2         3         4        11     9        0.000000        0.339623         1    ;  uncertainty k = 1.125812
         2         3         4        11     9      180.000000       10.361007         2    ;  uncertainty k = 0.438168
         2         3         4        11     9        0.000000        1.782333         3    ;  uncertainty k = 0.345867
         2         3         4        11     9      180.000000        1.042020         4    ;  uncertainty k = 0.184086
         2        10         6         5     9        0.000000       -0.343465         1    ;  uncertainty k = 0.683332
         2        10         6         5     9      180.000000       10.390351         2    ;  uncertainty k = 0.295753
         2        10         6         5     9        0.000000       -1.032712         3    ;  uncertainty k = 0.213107
         2        10         6         5     9      180.000000        1.060640         4    ;  uncertainty k = 0.290929
         2        10         6         7     9        0.000000        0.238175         1    ;  uncertainty k = 0.800266
         2        10         6         7     9      180.000000        7.188811         2    ;  uncertainty k = 0.751789
         2        10         6         7     9        0.000000       -0.004433         3    ;  uncertainty k = 0.420440
         2        10         6         7     9      180.000000        1.267954         4    ;  uncertainty k = 0.220217
         2        10         9         8     9        0.000000       -1.033723         1    ;  uncertainty k = 0.816930
         2        10         9         8     9      180.000000        2.422210         2    ;  uncertainty k = 0.257246
         2        10         9         8     9        0.000000        0.384860         3    ;  uncertainty k = 0.265678
         2        10         9         8     9      180.000000        0.655648         4    ;  uncertainty k = 0.171255
         2        10         9        40     9        0.000000        0.513401         1    ;  uncertainty k = 0.429047
         2        10         9        40     9      180.000000        0.881348         2    ;  uncertainty k = 0.326700
         2        10         9        40     9        0.000000        0.188495         3    ;  uncertainty k = 0.220840
         2        10         9        40     9      180.000000        0.216553         4    ;  uncertainty k = 0.087233
         2        10         9        41     9        0.000000        0.513401         1    ;  uncertainty k = 0.429047
         2        10         9        41     9      180.000000        0.881348         2    ;  uncertainty k = 0.326700
         2        10         9        41     9        0.000000        0.188495         3    ;  uncertainty k = 0.220840
         2        10         9        41     9      180.000000        0.216553         4    ;  uncertainty k = 0.087233
         3         2         1        33     9        0.000000        0.473644         1    ;  uncertainty k = 0.311190
         3         2         1        33     9      180.000000        3.784045         2    ;  uncertainty k = 0.138774
         3         2         1        33     9        0.000000        0.535072         3    ;  uncertainty k = 0.068893
         3         2         1        33     9      180.000000        0.271628         4    ;  uncertainty k = 0.057645
         3         2         1        34     9        0.000000        0.473644         1    ;  uncertainty k = 0.311190
         3         2         1        34     9      180.000000        3.784045         2    ;  uncertainty k = 0.138774
         3         2         1        34     9        0.000000        0.535072         3    ;  uncertainty k = 0.068893
         3         2         1        34     9      180.000000        0.271628         4    ;  uncertainty k = 0.057645
         3         2         1        35     9        0.000000        0.473644         1    ;  uncertainty k = 0.311190
         3         2         1        35     9      180.000000        3.784045         2    ;  uncertainty k = 0.138774
         3         2         1        35     9        0.000000        0.535072         3    ;  uncertainty k = 0.068893
         3         2         1        35     9      180.000000        0.271628         4    ;  uncertainty k = 0.057645
         3         2        10         6     9        0.000000       -0.371000         1    ;  uncertainty k = 1.167594
         3         2        10         6     9      180.000000       11.498044         2    ;  uncertainty k = 0.384865
         3         2        10         6     9        0.000000       -1.864513         3    ;  uncertainty k = 1.104584
         3         2        10         6     9      180.000000        0.760066         4    ;  uncertainty k = 0.265077
         3         2        10         9     9        0.000000       -0.040012         1    ;  uncertainty k = 0.332064
         3         2        10         9     9      180.000000        7.482340         2    ;  uncertainty k = 0.513433
         3         2        10         9     9        0.000000        1.117977         3    ;  uncertainty k = 0.368267
         3         2        10         9     9      180.000000        1.426290         4    ;  uncertainty k = 0.238335
         3         4         5         6     9        0.000000        0.521439         1    ;  uncertainty k = 1.677954
         3         4         5         6     9      180.000000        8.775333         2    ;  uncertainty k = 0.750858
         3         4         5         6     9        0.000000        0.739216         3    ;  uncertainty k = 0.443433
         3         4         5         6     9      180.000000        0.732204         4    ;  uncertainty k = 0.094632
         3         4        11        12     9        0.000000        5.106362         1    ;  uncertainty k = 0.456080
         3         4        11        12     9      180.000000       11.338326         2    ;  uncertainty k = 0.124310
         3         4        11        12     9        0.000000        0.183433         3    ;  uncertainty k = 0.214345
         3         4        11        12     9      180.000000       -0.331336         4    ;  uncertainty k = 0.032723
         3         4        11        18     9        0.000000        5.106363         1    ;  uncertainty k = 0.456081
         3         4        11        18     9      180.000000       11.338325         2    ;  uncertainty k = 0.124309
         3         4        11        18     9        0.000000        0.183433         3    ;  uncertainty k = 0.214345
         3         4        11        18     9      180.000000       -0.331337         4    ;  uncertainty k = 0.032723
         4         3         2        10     9        0.000000       -0.557052         1    ;  uncertainty k = 0.614793
         4         3         2        10     9      180.000000       14.921746         2    ;  uncertainty k = 0.484057
         4         3         2        10     9        0.000000        0.361631         3    ;  uncertainty k = 0.566903
         4         3         2        10     9      180.000000        1.240256         4    ;  uncertainty k = 0.587101
         4         5         6         7     9        0.000000        0.485218         1    ;  uncertainty k = 0.629269
         4         5         6         7     9      180.000000       16.581274         2    ;  uncertainty k = 0.371890
         4         5         6         7     9        0.000000        1.471877         3    ;  uncertainty k = 0.332071
         4         5         6         7     9      180.000000        1.165315         4    ;  uncertainty k = 0.507225
         4         5         6        10     9        0.000000       -0.397704         1    ;  uncertainty k = 0.440688
         4         5         6        10     9      180.000000       16.741443         2    ;  uncertainty k = 0.306621
         4         5         6        10     9        0.000000       -0.401635         3    ;  uncertainty k = 0.492675
         4         5         6        10     9      180.000000        1.072853         4    ;  uncertainty k = 0.152973
         4        11        12        13     9        0.000000       -5.102150         1    ;  uncertainty k = 1.681271
         4        11        12        13     9      180.000000        0.590965         2    ;  uncertainty k = 0.578855
         4        11        12        13     9        0.000000        0.782163         3    ;  uncertainty k = 0.253977
         4        11        12        13     9      180.000000        0.320360         4    ;  uncertainty k = 0.118922
         4        11        12        42     9        0.000000       -0.155417         1    ;  uncertainty k = 0.774779
         4        11        12        42     9      180.000000        0.974984         2    ;  uncertainty k = 0.467226
         4        11        12        42     9        0.000000        0.585220         3    ;  uncertainty k = 0.123052
         4        11        12        42     9      180.000000        0.380793         4    ;  uncertainty k = 0.106250
         4        11        12        43     9        0.000000       -0.155417         1    ;  uncertainty k = 0.774779
         4        11        12        43     9      180.000000        0.974984         2    ;  uncertainty k = 0.467226
         4        11        12        43     9        0.000000        0.585220         3    ;  uncertainty k = 0.123052
         4        11        12        43     9      180.000000        0.380793         4    ;  uncertainty k = 0.106250
         4        11        18        17     9        0.000000       -5.102149         1    ;  uncertainty k = 1.681269
         4        11        18        17     9      180.000000        0.590964         2    ;  uncertainty k = 0.578856
         4        11        18        17     9        0.000000        0.782163         3    ;  uncertainty k = 0.253977
         4        11        18        17     9      180.000000        0.320361         4    ;  uncertainty k = 0.118922
         4        11        18        50     9        0.000000       -0.155414         1    ;  uncertainty k = 0.774779
         4        11        18        50     9      180.000000        0.974984         2    ;  uncertainty k = 0.467229
         4        11        18        50     9        0.000000        0.585220         3    ;  uncertainty k = 0.123052
         4        11        18        50     9      180.000000        0.380792         4    ;  uncertainty k = 0.106250
         4        11        18        51     9        0.000000       -0.155414         1    ;  uncertainty k = 0.774779
         4        11        18        51     9      180.000000        0.974984         2    ;  uncertainty k = 0.467229
         4        11        18        51     9        0.000000        0.585220         3    ;  uncertainty k = 0.123052
         4        11        18        51     9      180.000000        0.380792         4    ;  uncertainty k = 0.106250
         5         4        11        12     9        0.000000        5.174368         1    ;  uncertainty k = 0.617576
         5         4        11        12     9      180.000000       10.836310         2    ;  uncertainty k = 0.114606
         5         4        11        12     9        0.000000        0.344783         3    ;  uncertainty k = 0.234610
         5         4        11        12     9      180.000000       -0.300974         4    ;  uncertainty k = 0.109587
         5         4        11        18     9        0.000000        5.174370         1    ;  uncertainty k = 0.617576
         5         4        11        18     9      180.000000       10.836311         2    ;  uncertainty k = 0.114605
         5         4        11        18     9        0.000000        0.344783         3    ;  uncertainty k = 0.234609
         5         4        11        18     9      180.000000       -0.300974         4    ;  uncertainty k = 0.109588
         5         6         7         8     9        0.000000       -2.200397         1    ;  uncertainty k = 2.055956
         5         6         7         8     9      180.000000        4.156298         2    ;  uncertainty k = 0.388738
         5         6         7         8     9        0.000000        0.584307         3    ;  uncertainty k = 0.283815
         5         6         7         8     9      180.000000        0.555439         4    ;  uncertainty k = 0.089018
         5         6         7        36     9        0.000000        1.620841         1    ;  uncertainty k = 0.128617
         5         6         7        36     9      180.000000        3.261038         2    ;  uncertainty k = 0.408554
         5         6         7        36     9        0.000000        0.337682         3    ;  uncertainty k = 0.162380
         5         6         7        36     9      180.000000        0.346092         4    ;  uncertainty k = 0.128553
         5         6         7        37     9        0.000000        1.620841         1    ;  uncertainty k = 0.128617
         5         6         7        37     9      180.000000        3.261038         2    ;  uncertainty k = 0.408554
         5         6         7        37     9        0.000000        0.337682         3    ;  uncertainty k = 0.162380
         5         6         7        37     9      180.000000        0.346092         4    ;  uncertainty k = 0.128553
         5         6        10         9     9        0.000000        0.238684         1    ;  uncertainty k = 0.338467
         5         6        10         9     9      180.000000       11.043975         2    ;  uncertainty k = 0.650024
         5         6        10         9     9        0.000000        0.097922         3    ;  uncertainty k = 0.429440
         5         6        10         9     9      180.000000        1.078202         4    ;  uncertainty k = 0.183674
         6         5         4        11     9        0.000000        0.713437         1    ;  uncertainty k = 1.577204
         6         5         4        11     9      180.000000       11.051078         2    ;  uncertainty k = 0.352819
         6         5         4        11     9        0.000000        1.548488         3    ;  uncertainty k = 0.521716
         6         5         4        11     9      180.000000        0.882787         4    ;  uncertainty k = 0.266360
         6         7         8         9     9        0.000000       -0.808296         1    ;  uncertainty k = 1.232320
         6         7         8         9     9      180.000000        4.669070         2    ;  uncertainty k = 0.440069
         6         7         8         9     9        0.000000        0.152088         3    ;  uncertainty k = 0.715639
         6         7         8         9     9      180.000000       -1.305271         4    ;  uncertainty k = 0.276035
         6         7         8        38     9        0.000000       -0.965215         1    ;  uncertainty k = 0.433668
         6         7         8        38     9      180.000000       -0.173371         2    ;  uncertainty k = 0.297821
         6         7         8        38     9        0.000000        0.763370         3    ;  uncertainty k = 0.161274
         6         7         8        38     9      180.000000        0.053080         4    ;  uncertainty k = 0.130993
         6         7         8        39     9        0.000000       -0.965215         1    ;  uncertainty k = 0.433668
         6         7         8        39     9      180.000000       -0.173371         2    ;  uncertainty k = 0.297821
         6         7         8        39     9        0.000000        0.763370         3    ;  uncertainty k = 0.161274
         6         7         8        39     9      180.000000        0.053080         4    ;  uncertainty k = 0.130993
         6        10         9         8     9        0.000000       -2.184655         1    ;  uncertainty k = 1.150224
         6        10         9         8     9      180.000000       12.770400         2    ;  uncertainty k = 0.828648
         6        10         9         8     9        0.000000       -1.652368         3    ;  uncertainty k = 0.617193
         6        10         9         8     9      180.000000        0.420628         4    ;  uncertainty k = 0.491591
         6        10         9        40     9        0.000000       -0.314083         1    ;  uncertainty k = 0.204471
         6        10         9        40     9      180.000000        1.321716         2    ;  uncertainty k = 0.360319
         6        10         9        40     9        0.000000        0.358811         3    ;  uncertainty k = 0.176745
         6        10         9        40     9      180.000000        0.280604         4    ;  uncertainty k = 0.113436
         6        10         9        41     9        0.000000       -0.314083         1    ;  uncertainty k = 0.204471
         6        10         9        41     9      180.000000        1.321716         2    ;  uncertainty k = 0.360319
         6        10         9        41     9        0.000000        0.358811         3    ;  uncertainty k = 0.176745
         6        10         9        41     9      180.000000        0.280604         4    ;  uncertainty k = 0.113436
         7         6        10         9     9        0.000000        0.317833         1    ;  uncertainty k = 0.617738
         7         6        10         9     9      180.000000       10.578810         2    ;  uncertainty k = 0.596004
         7         6        10         9     9        0.000000       -1.091181         3    ;  uncertainty k = 0.684376
         7         6        10         9     9      180.000000        1.267944         4    ;  uncertainty k = 0.264563
         7         8         9        10     9        0.000000       -1.187855         1    ;  uncertainty k = 1.428570
         7         8         9        10     9      180.000000        3.450022         2    ;  uncertainty k = 1.213360
         7         8         9        10     9        0.000000        0.420109         3    ;  uncertainty k = 0.551513
         7         8         9        10     9      180.000000       -1.411867         4    ;  uncertainty k = 0.468967
         7         8         9        40     9        0.000000       -1.391198         1    ;  uncertainty k = 0.556020
         7         8         9        40     9      180.000000       -0.087759         2    ;  uncertainty k = 0.159050
         7         8         9        40     9        0.000000        0.789971         3    ;  uncertainty k = 0.143386
         7         8         9        40     9      180.000000        0.176349         4    ;  uncertainty k = 0.032755
         7         8         9        41     9        0.000000       -1.391198         1    ;  uncertainty k = 0.556020
         7         8         9        41     9      180.000000       -0.087759         2    ;  uncertainty k = 0.159050
         7         8         9        41     9        0.000000        0.789971         3    ;  uncertainty k = 0.143386
         7         8         9        41     9      180.000000        0.176349         4    ;  uncertainty k = 0.032755
         8         7         6        10     9        0.000000       -2.072591         1    ;  uncertainty k = 2.386595
         8         7         6        10     9      180.000000       12.150807         2    ;  uncertainty k = 0.275194
         8         7         6        10     9        0.000000       -2.061892         3    ;  uncertainty k = 0.545692
         8         7         6        10     9      180.000000        0.512407         4    ;  uncertainty k = 0.319257
         9         8         7        36     9        0.000000       -1.248847         1    ;  uncertainty k = 0.372737
         9         8         7        36     9      180.000000       -0.229383         2    ;  uncertainty k = 0.170099
         9         8         7        36     9        0.000000        0.751265         3    ;  uncertainty k = 0.122288
         9         8         7        36     9      180.000000        0.183615         4    ;  uncertainty k = 0.097484
         9         8         7        37     9        0.000000       -1.248847         1    ;  uncertainty k = 0.372737
         9         8         7        37     9      180.000000       -0.229383         2    ;  uncertainty k = 0.170099
         9         8         7        37     9        0.000000        0.751265         3    ;  uncertainty k = 0.122288
         9         8         7        37     9      180.000000        0.183615         4    ;  uncertainty k = 0.097484
        10         2         1        33     9        0.000000       -0.277865         1    ;  uncertainty k = 0.272538
        10         2         1        33     9      180.000000        2.682738         2    ;  uncertainty k = 0.249996
        10         2         1        33     9        0.000000        0.411134         3    ;  uncertainty k = 0.098400
        10         2         1        33     9      180.000000        0.221330         4    ;  uncertainty k = 0.081289
        10         2         1        34     9        0.000000       -0.277865         1    ;  uncertainty k = 0.272538
        10         2         1        34     9      180.000000        2.682738         2    ;  uncertainty k = 0.249996
        10         2         1        34     9        0.000000        0.411134         3    ;  uncertainty k = 0.098400
        10         2         1        34     9      180.000000        0.221330         4    ;  uncertainty k = 0.081289
        10         2         1        35     9        0.000000       -0.277865         1    ;  uncertainty k = 0.272538
        10         2         1        35     9      180.000000        2.682738         2    ;  uncertainty k = 0.249996
        10         2         1        35     9        0.000000        0.411134         3    ;  uncertainty k = 0.098400
        10         2         1        35     9      180.000000        0.221330         4    ;  uncertainty k = 0.081289
        10         6         7        36     9        0.000000       -1.029945         1    ;  uncertainty k = 0.775212
        10         6         7        36     9      180.000000        2.274296         2    ;  uncertainty k = 0.349998
        10         6         7        36     9        0.000000        0.354098         3    ;  uncertainty k = 0.142341
        10         6         7        36     9      180.000000        0.250846         4    ;  uncertainty k = 0.104963
        10         6         7        37     9        0.000000       -1.029945         1    ;  uncertainty k = 0.775212
        10         6         7        37     9      180.000000        2.274296         2    ;  uncertainty k = 0.349998
        10         6         7        37     9        0.000000        0.354098         3    ;  uncertainty k = 0.142341
        10         6         7        37     9      180.000000        0.250846         4    ;  uncertainty k = 0.104963
        10         9         8        38     9        0.000000       -1.071160         1    ;  uncertainty k = 0.599015
        10         9         8        38     9      180.000000       -0.142404         2    ;  uncertainty k = 0.188498
        10         9         8        38     9        0.000000        0.751072         3    ;  uncertainty k = 0.090262
        10         9         8        38     9      180.000000        0.038790         4    ;  uncertainty k = 0.045997
        10         9         8        39     9        0.000000       -1.071160         1    ;  uncertainty k = 0.599015
        10         9         8        39     9      180.000000       -0.142404         2    ;  uncertainty k = 0.188498
        10         9         8        39     9        0.000000        0.751072         3    ;  uncertainty k = 0.090262
        10         9         8        39     9      180.000000        0.038790         4    ;  uncertainty k = 0.045997
        11        12        13        14     9        0.000000       -1.941267         1    ;  uncertainty k = 1.134985
        11        12        13        14     9      180.000000        0.984987         2    ;  uncertainty k = 0.884004
        11        12        13        14     9        0.000000        1.639481         3    ;  uncertainty k = 0.384704
        11        12        13        14     9      180.000000       -0.174377         4    ;  uncertainty k = 0.241160
        11        12        13        17     9        0.000000       -0.245476         1    ;  uncertainty k = 1.672374
        11        12        13        17     9      180.000000        6.164959         2    ;  uncertainty k = 1.108481
        11        12        13        17     9        0.000000        0.668504         3    ;  uncertainty k = 0.340329
        11        12        13        17     9      180.000000       -1.508775         4    ;  uncertainty k = 0.522718
        11        12        13        44     9        0.000000        0.553223         1    ;  uncertainty k = 0.798395
        11        12        13        44     9      180.000000        1.350779         2    ;  uncertainty k = 0.522928
        11        12        13        44     9        0.000000        1.167688         3    ;  uncertainty k = 0.215310
        11        12        13        44     9      180.000000       -0.078021         4    ;  uncertainty k = 0.181847
        11        18        17        13     9        0.000000       -0.245474         1    ;  uncertainty k = 1.672371
        11        18        17        13     9      180.000000        6.164960         2    ;  uncertainty k = 1.108481
        11        18        17        13     9        0.000000        0.668504         3    ;  uncertainty k = 0.340330
        11        18        17        13     9      180.000000       -1.508774         4    ;  uncertainty k = 0.522718
        11        18        17        16     9        0.000000       -1.941270         1    ;  uncertainty k = 1.134984
        11        18        17        16     9      180.000000        0.984986         2    ;  uncertainty k = 0.884007
        11        18        17        16     9        0.000000        1.639482         3    ;  uncertainty k = 0.384704
        11        18        17        16     9      180.000000       -0.174377         4    ;  uncertainty k = 0.241160
        11        18        17        49     9        0.000000        0.553224         1    ;  uncertainty k = 0.798396
        11        18        17        49     9      180.000000        1.350779         2    ;  uncertainty k = 0.522929
        11        18        17        49     9        0.000000        1.167688         3    ;  uncertainty k = 0.215310
        11        18        17        49     9      180.000000       -0.078022         4    ;  uncertainty k = 0.181847
        12        11        18        17     9        0.000000        0.412481         1    ;  uncertainty k = 1.085311
        12        11        18        17     9      180.000000        1.403983         2    ;  uncertainty k = 1.150864
        12        11        18        17     9        0.000000        0.857908         3    ;  uncertainty k = 0.331382
        12        11        18        17     9      180.000000        0.024663         4    ;  uncertainty k = 0.177746
        12        11        18        50     9        0.000000       -2.099787         1    ;  uncertainty k = 0.710685
        12        11        18        50     9      180.000000        1.271403         2    ;  uncertainty k = 0.391658
        12        11        18        50     9        0.000000        1.147616         3    ;  uncertainty k = 0.081138
        12        11        18        50     9      180.000000        0.248490         4    ;  uncertainty k = 0.124620
        12        11        18        51     9        0.000000       -2.099787         1    ;  uncertainty k = 0.710685
        12        11        18        51     9      180.000000        1.271403         2    ;  uncertainty k = 0.391658
        12        11        18        51     9        0.000000        1.147616         3    ;  uncertainty k = 0.081138
        12        11        18        51     9      180.000000        0.248490         4    ;  uncertainty k = 0.124620
        12        13        14        15     9        0.000000       -2.615875         1    ;  uncertainty k = 0.982519
        12        13        14        15     9      180.000000        0.033453         2    ;  uncertainty k = 0.736381
        12        13        14        15     9        0.000000        1.611714         3    ;  uncertainty k = 0.236222
        12        13        14        15     9      180.000000       -0.183059         4    ;  uncertainty k = 0.113137
        12        13        14        45     9        0.000000       -0.493694         1    ;  uncertainty k = 0.101892
        12        13        14        45     9      180.000000       -0.407910         2    ;  uncertainty k = 0.198094
        12        13        14        45     9        0.000000        0.564166         3    ;  uncertainty k = 0.188448
        12        13        14        45     9      180.000000       -0.071821         4    ;  uncertainty k = 0.061086
        12        13        14        46     9        0.000000       -0.493694         1    ;  uncertainty k = 0.101892
        12        13        14        46     9      180.000000       -0.407910         2    ;  uncertainty k = 0.198094
        12        13        14        46     9        0.000000        0.564166         3    ;  uncertainty k = 0.188448
        12        13        14        46     9      180.000000       -0.071821         4    ;  uncertainty k = 0.061086
        12        13        17        16     9        0.000000       -3.846003         1    ;  uncertainty k = 0.841959
        12        13        17        16     9      180.000000        1.002002         2    ;  uncertainty k = 1.023379
        12        13        17        16     9        0.000000        1.186377         3    ;  uncertainty k = 0.584622
        12        13        17        16     9      180.000000       -0.417056         4    ;  uncertainty k = 0.337302
        12        13        17        18     9        0.000000       -3.901461         1    ;  uncertainty k = 1.083276
        12        13        17        18     9      180.000000        1.049881         2    ;  uncertainty k = 1.034778
        12        13        17        18     9        0.000000        1.203028         3    ;  uncertainty k = 0.678492
        12        13        17        18     9      180.000000       -0.439474         4    ;  uncertainty k = 0.348768
        12        13        17        49     9        0.000000       -1.218151         1    ;  uncertainty k = 0.608825
        12        13        17        49     9      180.000000        0.495738         2    ;  uncertainty k = 0.420393
        12        13        17        49     9        0.000000        0.996178         3    ;  uncertainty k = 0.244502
        12        13        17        49     9      180.000000        0.066796         4    ;  uncertainty k = 0.088793
        13        12        11        18     9        0.000000        0.412481         1    ;  uncertainty k = 1.085310
        13        12        11        18     9      180.000000        1.403984         2    ;  uncertainty k = 1.150866
        13        12        11        18     9        0.000000        0.857908         3    ;  uncertainty k = 0.331382
        13        12        11        18     9      180.000000        0.024663         4    ;  uncertainty k = 0.177746
        13        14        15        16     9        0.000000       -0.578347         1    ;  uncertainty k = 0.919747
        13        14        15        16     9      180.000000        0.242792         2    ;  uncertainty k = 0.701024
        13        14        15        16     9        0.000000        0.797027         3    ;  uncertainty k = 0.218418
        13        14        15        16     9      180.000000        0.154107         4    ;  uncertainty k = 0.246781
        13        14        15        19     9        0.000000       -0.209381         1    ;  uncertainty k = 0.966461
        13        14        15        19     9      180.000000       -0.541701         2    ;  uncertainty k = 0.373893
        13        14        15        19     9        0.000000        0.202801         3    ;  uncertainty k = 0.362931
        13        14        15        19     9      180.000000        0.702312         4    ;  uncertainty k = 0.132281
        13        17        16        15     9        0.000000       -0.736764         1    ;  uncertainty k = 0.633515
        13        17        16        15     9      180.000000        6.025412         2    ;  uncertainty k = 1.000861
        13        17        16        15     9        0.000000        0.435197         3    ;  uncertainty k = 0.297546
        13        17        16        15     9      180.000000       -1.170163         4    ;  uncertainty k = 0.204855
        13        17        16        47     9        0.000000        0.480411         1    ;  uncertainty k = 0.492791
        13        17        16        47     9      180.000000       -1.104496         2    ;  uncertainty k = 0.672329
        13        17        16        47     9        0.000000       -0.270073         3    ;  uncertainty k = 0.170671
        13        17        16        47     9      180.000000       -0.013160         4    ;  uncertainty k = 0.174221
        13        17        16        48     9        0.000000        0.480411         1    ;  uncertainty k = 0.492791
        13        17        16        48     9      180.000000       -1.104496         2    ;  uncertainty k = 0.672329
        13        17        16        48     9        0.000000       -0.270073         3    ;  uncertainty k = 0.170671
        13        17        16        48     9      180.000000       -0.013160         4    ;  uncertainty k = 0.174221
        13        17        18        50     9        0.000000        0.647740         1    ;  uncertainty k = 0.522819
        13        17        18        50     9      180.000000       -1.102359         2    ;  uncertainty k = 0.739343
        13        17        18        50     9        0.000000       -0.339304         3    ;  uncertainty k = 0.211696
        13        17        18        50     9      180.000000       -0.017547         4    ;  uncertainty k = 0.205432
        13        17        18        51     9        0.000000        0.647740         1    ;  uncertainty k = 0.522819
        13        17        18        51     9      180.000000       -1.102359         2    ;  uncertainty k = 0.739343
        13        17        18        51     9        0.000000       -0.339304         3    ;  uncertainty k = 0.211696
        13        17        18        51     9      180.000000       -0.017547         4    ;  uncertainty k = 0.205432
        14        13        12        42     9        0.000000       -0.663334         1    ;  uncertainty k = 0.233501
        14        13        12        42     9      180.000000       -0.384277         2    ;  uncertainty k = 0.258427
        14        13        12        42     9        0.000000        0.555919         3    ;  uncertainty k = 0.180197
        14        13        12        42     9      180.000000       -0.080041         4    ;  uncertainty k = 0.096521
        14        13        12        43     9        0.000000       -0.663334         1    ;  uncertainty k = 0.233501
        14        13        12        43     9      180.000000       -0.384277         2    ;  uncertainty k = 0.258427
        14        13        12        43     9        0.000000        0.555919         3    ;  uncertainty k = 0.180197
        14        13        12        43     9      180.000000       -0.080041         4    ;  uncertainty k = 0.096521
        14        13        17        16     9        0.000000       -3.717091         1    ;  uncertainty k = 0.646014
        14        13        17        16     9      180.000000        0.952705         2    ;  uncertainty k = 0.984304
        14        13        17        16     9        0.000000        1.178983         3    ;  uncertainty k = 0.499657
        14        13        17        16     9      180.000000       -0.410261         4    ;  uncertainty k = 0.338854
        14        13        17        18     9        0.000000       -3.846003         1    ;  uncertainty k = 0.841958
        14        13        17        18     9      180.000000        1.002002         2    ;  uncertainty k = 1.023379
        14        13        17        18     9        0.000000        1.186378         3    ;  uncertainty k = 0.584622
        14        13        17        18     9      180.000000       -0.417056         4    ;  uncertainty k = 0.337302
        14        13        17        49     9        0.000000       -1.291634         1    ;  uncertainty k = 0.560343
        14        13        17        49     9      180.000000        0.594321         2    ;  uncertainty k = 0.368266
        14        13        17        49     9        0.000000        1.030260         3    ;  uncertainty k = 0.246250
        14        13        17        49     9      180.000000        0.081405         4    ;  uncertainty k = 0.059901
        14        15        16        17     9        0.000000       -0.578347         1    ;  uncertainty k = 0.919747
        14        15        16        17     9      180.000000        0.242792         2    ;  uncertainty k = 0.701025
        14        15        16        17     9        0.000000        0.797027         3    ;  uncertainty k = 0.218419
        14        15        16        17     9      180.000000        0.154107         4    ;  uncertainty k = 0.246781
        14        15        16        47     9        0.000000       -1.810377         1    ;  uncertainty k = 0.576097
        14        15        16        47     9      180.000000        1.086382         2    ;  uncertainty k = 0.426528
        14        15        16        47     9        0.000000        1.250141         3    ;  uncertainty k = 0.136647
        14        15        16        47     9      180.000000        0.301768         4    ;  uncertainty k = 0.117464
        14        15        16        48     9        0.000000       -1.810377         1    ;  uncertainty k = 0.576097
        14        15        16        48     9      180.000000        1.086382         2    ;  uncertainty k = 0.426528
        14        15        16        48     9        0.000000        1.250141         3    ;  uncertainty k = 0.136647
        14        15        16        48     9      180.000000        0.301768         4    ;  uncertainty k = 0.117464
        14        15        19        20     9        0.000000        6.357003         1    ;  uncertainty k = 0.547606
        14        15        19        20     9      180.000000       16.962734         2    ;  uncertainty k = 0.212954
        14        15        19        20     9        0.000000        0.267170         3    ;  uncertainty k = 0.202910
        14        15        19        20     9      180.000000       -1.190649         4    ;  uncertainty k = 0.124612
        14        15        19        21     9        0.000000        3.407849         1    ;  uncertainty k = 1.339110
        14        15        19        21     9      180.000000        8.996075         2    ;  uncertainty k = 0.412445
        14        15        19        21     9        0.000000        1.595044         3    ;  uncertainty k = 0.230309
        14        15        19        21     9      180.000000       -0.020267         4    ;  uncertainty k = 0.371981
        15        14        13        17     9        0.000000       -0.736762         1    ;  uncertainty k = 0.633517
        15        14        13        17     9      180.000000        6.025413         2    ;  uncertainty k = 1.000861
        15        14        13        17     9        0.000000        0.435196         3    ;  uncertainty k = 0.297545
        15        14        13        17     9      180.000000       -1.170163         4    ;  uncertainty k = 0.204856
        15        14        13        44     9        0.000000        0.123161         1    ;  uncertainty k = 0.632773
        15        14        13        44     9      180.000000        0.836162         2    ;  uncertainty k = 0.434791
        15        14        13        44     9        0.000000        1.098159         3    ;  uncertainty k = 0.161086
        15        14        13        44     9      180.000000       -0.066245         4    ;  uncertainty k = 0.104331
        15        16        17        18     9        0.000000       -2.615874         1    ;  uncertainty k = 0.982518
        15        16        17        18     9      180.000000        0.033453         2    ;  uncertainty k = 0.736380
        15        16        17        18     9        0.000000        1.611715         3    ;  uncertainty k = 0.236223
        15        16        17        18     9      180.000000       -0.183059         4    ;  uncertainty k = 0.113137
        15        16        17        49     9        0.000000        0.123160         1    ;  uncertainty k = 0.632774
        15        16        17        49     9      180.000000        0.836161         2    ;  uncertainty k = 0.434791
        15        16        17        49     9        0.000000        1.098159         3    ;  uncertainty k = 0.161086
        15        16        17        49     9      180.000000       -0.066245         4    ;  uncertainty k = 0.104331
        15        19        21        22     9        0.000000        1.851367         1    ;  uncertainty k = 1.259576
        15        19        21        22     9      180.000000        5.752965         2    ;  uncertainty k = 0.175508
        15        19        21        22     9        0.000000        0.162215         3    ;  uncertainty k = 0.318225
        15        19        21        22     9      180.000000        0.484794         4    ;  uncertainty k = 0.155871
        15        19        21        27     9        0.000000        3.709916         1    ;  uncertainty k = 1.132205
        15        19        21        27     9      180.000000        5.907216         2    ;  uncertainty k = 0.295098
        15        19        21        27     9        0.000000        0.162296         3    ;  uncertainty k = 0.106376
        15        19        21        27     9      180.000000        0.490410         4    ;  uncertainty k = 0.140372
        16        15        14        45     9        0.000000       -1.810377         1    ;  uncertainty k = 0.576098
        16        15        14        45     9      180.000000        1.086382         2    ;  uncertainty k = 0.426526
        16        15        14        45     9        0.000000        1.250141         3    ;  uncertainty k = 0.136647
        16        15        14        45     9      180.000000        0.301768         4    ;  uncertainty k = 0.117464
        16        15        14        46     9        0.000000       -1.810377         1    ;  uncertainty k = 0.576098
        16        15        14        46     9      180.000000        1.086382         2    ;  uncertainty k = 0.426526
        16        15        14        46     9        0.000000        1.250141         3    ;  uncertainty k = 0.136647
        16        15        14        46     9      180.000000        0.301768         4    ;  uncertainty k = 0.117464
        16        15        19        20     9        0.000000        6.357001         1    ;  uncertainty k = 0.547606
        16        15        19        20     9      180.000000       16.962734         2    ;  uncertainty k = 0.212955
        16        15        19        20     9        0.000000        0.267170         3    ;  uncertainty k = 0.202910
        16        15        19        20     9      180.000000       -1.190649         4    ;  uncertainty k = 0.124611
        16        15        19        21     9        0.000000        3.407847         1    ;  uncertainty k = 1.339110
        16        15        19        21     9      180.000000        8.996074         2    ;  uncertainty k = 0.412445
        16        15        19        21     9        0.000000        1.595043         3    ;  uncertainty k = 0.230310
        16        15        19        21     9      180.000000       -0.020268         4    ;  uncertainty k = 0.371981
        16        17        13        44     9        0.000000       -1.291633         1    ;  uncertainty k = 0.560343
        16        17        13        44     9      180.000000        0.594321         2    ;  uncertainty k = 0.368268
        16        17        13        44     9        0.000000        1.030260         3    ;  uncertainty k = 0.246250
        16        17        13        44     9      180.000000        0.081405         4    ;  uncertainty k = 0.059900
        16        17        18        50     9        0.000000       -0.663334         1    ;  uncertainty k = 0.233501
        16        17        18        50     9      180.000000       -0.384278         2    ;  uncertainty k = 0.258424
        16        17        18        50     9        0.000000        0.555920         3    ;  uncertainty k = 0.180198
        16        17        18        50     9      180.000000       -0.080041         4    ;  uncertainty k = 0.096521
        16        17        18        51     9        0.000000       -0.663334         1    ;  uncertainty k = 0.233501
        16        17        18        51     9      180.000000       -0.384278         2    ;  uncertainty k = 0.258424
        16        17        18        51     9        0.000000        0.555920         3    ;  uncertainty k = 0.180198
        16        17        18        51     9      180.000000       -0.080041         4    ;  uncertainty k = 0.096521
        17        13        12        42     9        0.000000        0.647741         1    ;  uncertainty k = 0.522821
        17        13        12        42     9      180.000000       -1.102360         2    ;  uncertainty k = 0.739344
        17        13        12        42     9        0.000000       -0.339304         3    ;  uncertainty k = 0.211697
        17        13        12        42     9      180.000000       -0.017547         4    ;  uncertainty k = 0.205431
        17        13        12        43     9        0.000000        0.647741         1    ;  uncertainty k = 0.522821
        17        13        12        43     9      180.000000       -1.102360         2    ;  uncertainty k = 0.739344
        17        13        12        43     9        0.000000       -0.339304         3    ;  uncertainty k = 0.211697
        17        13        12        43     9      180.000000       -0.017547         4    ;  uncertainty k = 0.205431
        17        13        14        45     9        0.000000        0.480411         1    ;  uncertainty k = 0.492791
        17        13        14        45     9      180.000000       -1.104495         2    ;  uncertainty k = 0.672328
        17        13        14        45     9        0.000000       -0.270073         3    ;  uncertainty k = 0.170671
        17        13        14        45     9      180.000000       -0.013161         4    ;  uncertainty k = 0.174221
        17        13        14        46     9        0.000000        0.480411         1    ;  uncertainty k = 0.492791
        17        13        14        46     9      180.000000       -1.104495         2    ;  uncertainty k = 0.672328
        17        13        14        46     9        0.000000       -0.270073         3    ;  uncertainty k = 0.170671
        17        13        14        46     9      180.000000       -0.013161         4    ;  uncertainty k = 0.174221
        17        16        15        19     9        0.000000       -0.209380         1    ;  uncertainty k = 0.966459
        17        16        15        19     9      180.000000       -0.541701         2    ;  uncertainty k = 0.373894
        17        16        15        19     9        0.000000        0.202801         3    ;  uncertainty k = 0.362931
        17        16        15        19     9      180.000000        0.702311         4    ;  uncertainty k = 0.132281
        18        11        12        42     9        0.000000       -2.099787         1    ;  uncertainty k = 0.710685
        18        11        12        42     9      180.000000        1.271404         2    ;  uncertainty k = 0.391659
        18        11        12        42     9        0.000000        1.147616         3    ;  uncertainty k = 0.081138
        18        11        12        42     9      180.000000        0.248490         4    ;  uncertainty k = 0.124619
        18        11        12        43     9        0.000000       -2.099787         1    ;  uncertainty k = 0.710685
        18        11        12        43     9      180.000000        1.271404         2    ;  uncertainty k = 0.391659
        18        11        12        43     9        0.000000        1.147616         3    ;  uncertainty k = 0.081138
        18        11        12        43     9      180.000000        0.248490         4    ;  uncertainty k = 0.124619
        18        17        13        44     9        0.000000       -1.218150         1    ;  uncertainty k = 0.608827
        18        17        13        44     9      180.000000        0.495737         2    ;  uncertainty k = 0.420394
        18        17        13        44     9        0.000000        0.996178         3    ;  uncertainty k = 0.244502
        18        17        13        44     9      180.000000        0.066796         4    ;  uncertainty k = 0.088793
        18        17        16        47     9        0.000000       -0.493694         1    ;  uncertainty k = 0.101892
        18        17        16        47     9      180.000000       -0.407910         2    ;  uncertainty k = 0.198092
        18        17        16        47     9        0.000000        0.564166         3    ;  uncertainty k = 0.188448
        18        17        16        47     9      180.000000       -0.071821         4    ;  uncertainty k = 0.061087
        18        17        16        48     9        0.000000       -0.493694         1    ;  uncertainty k = 0.101892
        18        17        16        48     9      180.000000       -0.407910         2    ;  uncertainty k = 0.198092
        18        17        16        48     9        0.000000        0.564166         3    ;  uncertainty k = 0.188448
        18        17        16        48     9      180.000000       -0.071821         4    ;  uncertainty k = 0.061087
        19        15        14        45     9        0.000000        1.416105         1    ;  uncertainty k = 0.719804
        19        15        14        45     9      180.000000        0.065610         2    ;  uncertainty k = 0.093474
        19        15        14        45     9        0.000000        0.002232         3    ;  uncertainty k = 0.089343
        19        15        14        45     9      180.000000        0.277826         4    ;  uncertainty k = 0.071341
        19        15        14        46     9        0.000000        1.416105         1    ;  uncertainty k = 0.719804
        19        15        14        46     9      180.000000        0.065610         2    ;  uncertainty k = 0.093474
        19        15        14        46     9        0.000000        0.002232         3    ;  uncertainty k = 0.089343
        19        15        14        46     9      180.000000        0.277826         4    ;  uncertainty k = 0.071341
        19        15        16        47     9        0.000000        1.416105         1    ;  uncertainty k = 0.719804
        19        15        16        47     9      180.000000        0.065610         2    ;  uncertainty k = 0.093472
        19        15        16        47     9        0.000000        0.002232         3    ;  uncertainty k = 0.089343
        19        15        16        47     9      180.000000        0.277826         4    ;  uncertainty k = 0.071341
        19        15        16        48     9        0.000000        1.416105         1    ;  uncertainty k = 0.719804
        19        15        16        48     9      180.000000        0.065610         2    ;  uncertainty k = 0.093472
        19        15        16        48     9        0.000000        0.002232         3    ;  uncertainty k = 0.089343
        19        15        16        48     9      180.000000        0.277826         4    ;  uncertainty k = 0.071341
        19        21        22        23     9        0.000000        0.086680         1    ;  uncertainty k = 0.322670
        19        21        22        23     9      180.000000       11.407953         2    ;  uncertainty k = 0.599565
        19        21        22        23     9        0.000000        1.385161         3    ;  uncertainty k = 0.187005
        19        21        22        23     9      180.000000        1.483635         4    ;  uncertainty k = 0.318096
        19        21        22        24     9        0.000000        0.114462         1    ;  uncertainty k = 0.659063
        19        21        22        24     9      180.000000        6.312817         2    ;  uncertainty k = 0.577136
        19        21        22        24     9        0.000000        1.356865         3    ;  uncertainty k = 0.282275
        19        21        22        24     9      180.000000        1.940646         4    ;  uncertainty k = 0.196893
        19        21        27        26     9        0.000000        0.266109         1    ;  uncertainty k = 0.262230
        19        21        27        26     9      180.000000        6.791976         2    ;  uncertainty k = 0.556220
        19        21        27        26     9        0.000000        1.305735         3    ;  uncertainty k = 0.332052
        19        21        27        26     9      180.000000        1.750369         4    ;  uncertainty k = 0.249436
        19        21        27        28     9        0.000000       -0.079088         1    ;  uncertainty k = 0.890587
        19        21        27        28     9      180.000000       10.037557         2    ;  uncertainty k = 0.622174
        19        21        27        28     9        0.000000        1.315712         3    ;  uncertainty k = 0.504290
        19        21        27        28     9      180.000000        1.286094         4    ;  uncertainty k = 0.361801
        20        19        21        22     9        0.000000       -1.928785         1    ;  uncertainty k = 0.969843
        20        19        21        22     9      180.000000        5.038791         2    ;  uncertainty k = 0.443316
        20        19        21        22     9        0.000000        0.869540         3    ;  uncertainty k = 0.424298
        20        19        21        22     9      180.000000        0.459984         4    ;  uncertainty k = 0.229979
        20        19        21        27     9        0.000000       -3.997731         1    ;  uncertainty k = 0.906468
        20        19        21        27     9      180.000000        5.945518         2    ;  uncertainty k = 0.542758
        20        19        21        27     9        0.000000        0.551178         3    ;  uncertainty k = 0.549645
        20        19        21        27     9      180.000000        0.513462         4    ;  uncertainty k = 0.329406
        21        22        24        25     9        0.000000        0.011529         1    ;  uncertainty k = 0.194930
        21        22        24        25     9      180.000000        8.787238         2    ;  uncertainty k = 0.361867
        21        22        24        25     9        0.000000        0.106727         3    ;  uncertainty k = 0.344316
        21        22        24        25     9      180.000000        1.205900         4    ;  uncertainty k = 0.276948
        21        22        24        52     9        0.000000       -0.168918         1    ;  uncertainty k = 0.390695
        21        22        24        52     9      180.000000        5.695522         2    ;  uncertainty k = 0.674905
        21        22        24        52     9        0.000000        1.129293         3    ;  uncertainty k = 0.356557
        21        22        24        52     9      180.000000        1.505167         4    ;  uncertainty k = 0.216214
        21        27        26        25     9        0.000000       -0.242508         1    ;  uncertainty k = 0.315737
        21        27        26        25     9      180.000000        9.681246         2    ;  uncertainty k = 0.496020
        21        27        26        25     9        0.000000        0.240132         3    ;  uncertainty k = 0.161668
        21        27        26        25     9      180.000000        1.271249         4    ;  uncertainty k = 0.330409
        21        27        26        54     9        0.000000       -0.007148         1    ;  uncertainty k = 0.345797
        21        27        26        54     9      180.000000        6.393420         2    ;  uncertainty k = 0.363299
        21        27        26        54     9        0.000000        1.235598         3    ;  uncertainty k = 0.195907
        21        27        26        54     9      180.000000        1.608512         4    ;  uncertainty k = 0.191460
        21        27        28        29     9        0.000000       -1.535069         1    ;  uncertainty k = 0.563416
        21        27        28        29     9      180.000000        4.499715         2    ;  uncertainty k = 0.535585
        21        27        28        29     9        0.000000        0.637687         3    ;  uncertainty k = 0.351002
        21        27        28        29     9      180.000000       -0.090463         4    ;  uncertainty k = 0.183190
        21        27        28        32     9        0.000000       -1.535069         1    ;  uncertainty k = 0.563416
        21        27        28        32     9      180.000000        4.499715         2    ;  uncertainty k = 0.535585
        21        27        28        32     9        0.000000        0.637687         3    ;  uncertainty k = 0.351002
        21        27        28        32     9      180.000000       -0.090463         4    ;  uncertainty k = 0.183190
        22        21        27        26     9        0.000000       -0.242351         1    ;  uncertainty k = 0.420152
        22        21        27        26     9      180.000000        6.983637         2    ;  uncertainty k = 0.869640
        22        21        27        26     9        0.000000        0.325219         3    ;  uncertainty k = 0.349953
        22        21        27        26     9      180.000000        1.307286         4    ;  uncertainty k = 0.335099
        22        21        27        28     9        0.000000        0.337460         1    ;  uncertainty k = 0.391009
        22        21        27        28     9      180.000000       10.376661         2    ;  uncertainty k = 0.372710
        22        21        27        28     9        0.000000        1.330823         3    ;  uncertainty k = 0.417773
        22        21        27        28     9      180.000000        1.431413         4    ;  uncertainty k = 0.199546
        22        24        25        26     9        0.000000       -0.033963         1    ;  uncertainty k = 0.110226
        22        24        25        26     9      180.000000       13.984025         2    ;  uncertainty k = 0.340845
        22        24        25        26     9        0.000000       -1.042557         3    ;  uncertainty k = 0.357764
        22        24        25        26     9      180.000000        0.802609         4    ;  uncertainty k = 0.247483
        22        24        25        53     9        0.000000       -0.104379         1    ;  uncertainty k = 0.141872
        22        24        25        53     9      180.000000        7.264410         2    ;  uncertainty k = 0.340044
        22        24        25        53     9        0.000000        1.287730         3    ;  uncertainty k = 0.202339
        22        24        25        53     9      180.000000        1.653500         4    ;  uncertainty k = 0.150967
        23        22        21        27     9        0.000000        0.033254         1    ;  uncertainty k = 0.304862
        23        22        21        27     9      180.000000       11.302610         2    ;  uncertainty k = 0.302059
        23        22        21        27     9        0.000000        1.679241         3    ;  uncertainty k = 0.164696
        23        22        21        27     9      180.000000        1.555515         4    ;  uncertainty k = 0.157671
        23        22        24        25     9        0.000000       -0.080232         1    ;  uncertainty k = 0.461474
        23        22        24        25     9      180.000000       13.203682         2    ;  uncertainty k = 0.340325
        23        22        24        25     9        0.000000        1.295972         3    ;  uncertainty k = 0.165134
        23        22        24        25     9      180.000000        1.523069         4    ;  uncertainty k = 0.233966
        23        22        24        52     9        0.000000       -0.128834         1    ;  uncertainty k = 0.456012
        23        22        24        52     9      180.000000        9.556552         2    ;  uncertainty k = 0.491147
        23        22        24        52     9        0.000000        0.767278         3    ;  uncertainty k = 0.273034
        23        22        24        52     9      180.000000        1.024642         4    ;  uncertainty k = 0.200947
        24        22        21        27     9        0.000000       -0.325541         1    ;  uncertainty k = 0.355388
        24        22        21        27     9      180.000000        6.052960         2    ;  uncertainty k = 0.864094
        24        22        21        27     9        0.000000        0.684668         3    ;  uncertainty k = 0.181781
        24        22        21        27     9      180.000000        1.492448         4    ;  uncertainty k = 0.353261
        24        25        26        27     9        0.000000       -0.096416         1    ;  uncertainty k = 0.180639
        24        25        26        27     9      180.000000       13.532949         2    ;  uncertainty k = 0.268821
        24        25        26        27     9        0.000000       -0.934273         3    ;  uncertainty k = 0.410646
        24        25        26        27     9      180.000000        0.824229         4    ;  uncertainty k = 0.239882
        24        25        26        54     9        0.000000        0.090918         1    ;  uncertainty k = 0.138952
        24        25        26        54     9      180.000000        7.803070         2    ;  uncertainty k = 0.340548
        24        25        26        54     9        0.000000        1.340932         3    ;  uncertainty k = 0.288750
        24        25        26        54     9      180.000000        1.895629         4    ;  uncertainty k = 0.190611
        25        26        27        28     9        0.000000        0.460449         1    ;  uncertainty k = 0.322983
        25        26        27        28     9      180.000000       11.387678         2    ;  uncertainty k = 0.346993
        25        26        27        28     9        0.000000        0.982542         3    ;  uncertainty k = 0.164036
        25        26        27        28     9      180.000000        1.624026         4    ;  uncertainty k = 0.138288
        26        25        24        52     9        0.000000        0.058868         1    ;  uncertainty k = 0.276257
        26        25        24        52     9      180.000000        7.716329         2    ;  uncertainty k = 0.326791
        26        25        24        52     9        0.000000        1.437490         3    ;  uncertainty k = 0.272563
        26        25        24        52     9      180.000000        1.759669         4    ;  uncertainty k = 0.126329
        26        27        28        29     9        0.000000        2.394481         1    ;  uncertainty k = 0.740964
        26        27        28        29     9      180.000000        4.329586         2    ;  uncertainty k = 0.263950
        26        27        28        29     9        0.000000        0.391713         3    ;  uncertainty k = 0.190597
        26        27        28        29     9      180.000000        0.083730         4    ;  uncertainty k = 0.150415
        26        27        28        32     9        0.000000        2.394481         1    ;  uncertainty k = 0.740964
        26        27        28        32     9      180.000000        4.329586         2    ;  uncertainty k = 0.263950
        26        27        28        32     9        0.000000        0.391713         3    ;  uncertainty k = 0.190597
        26        27        28        32     9      180.000000        0.083730         4    ;  uncertainty k = 0.150415
        27        26        25        53     9        0.000000       -0.010723         1    ;  uncertainty k = 0.237400
        27        26        25        53     9      180.000000        7.958978         2    ;  uncertainty k = 0.442749
        27        26        25        53     9        0.000000        1.209101         3    ;  uncertainty k = 0.164443
        27        26        25        53     9      180.000000        1.723739         4    ;  uncertainty k = 0.144208
        27        28        29        30     9        0.000000        0.797559         1    ;  uncertainty k = 2.309877
        27        28        29        30     9      180.000000       14.114446         2    ;  uncertainty k = 0.418682
        27        28        29        30     9        0.000000        1.402880         3    ;  uncertainty k = 0.442527
        27        28        29        30     9      180.000000        0.112613         4    ;  uncertainty k = 0.206946
        27        28        32        31     9        0.000000        0.797559         1    ;  uncertainty k = 2.309877
        27        28        32        31     9      180.000000       14.114446         2    ;  uncertainty k = 0.418682
        27        28        32        31     9        0.000000        1.402880         3    ;  uncertainty k = 0.442527
        27        28        32        31     9      180.000000        0.112613         4    ;  uncertainty k = 0.206946
        28        27        26        54     9        0.000000        0.135211         1    ;  uncertainty k = 0.398577
        28        27        26        54     9      180.000000        8.519176         2    ;  uncertainty k = 0.273746
        28        27        26        54     9        0.000000        0.803950         3    ;  uncertainty k = 0.224881
        28        27        26        54     9      180.000000        1.348903         4    ;  uncertainty k = 0.152778
        28        29        30        31     9        0.000000        0.015899         1    ;  uncertainty k = 0.518603
        28        29        30        31     9      180.000000       24.370143         2    ;  uncertainty k = 0.366584
        28        29        30        31     9        0.000000       -9.715998         3    ;  uncertainty k = 1.915613
        28        29        30        31     9      180.000000        2.426696         4    ;  uncertainty k = 0.655510
        28        29        30        55     9        0.000000        0.232294         1    ;  uncertainty k = 0.741580
        28        29        30        55     9      180.000000       22.028694         2    ;  uncertainty k = 0.487024
        28        29        30        55     9        0.000000        1.455895         3    ;  uncertainty k = 0.397708
        28        29        30        55     9      180.000000        1.220382         4    ;  uncertainty k = 0.604170
        28        32        31        30     9        0.000000        0.015899         1    ;  uncertainty k = 0.518603
        28        32        31        30     9      180.000000       24.370143         2    ;  uncertainty k = 0.366584
        28        32        31        30     9        0.000000       -9.715998         3    ;  uncertainty k = 1.915613
        28        32        31        30     9      180.000000        2.426696         4    ;  uncertainty k = 0.655510
        28        32        31        56     9        0.000000        0.232294         1    ;  uncertainty k = 0.741580
        28        32        31        56     9      180.000000       22.028694         2    ;  uncertainty k = 0.487024
        28        32        31        56     9        0.000000        1.455895         3    ;  uncertainty k = 0.397708
        28        32        31        56     9      180.000000        1.220382         4    ;  uncertainty k = 0.604170
        29        28        32        31     9        0.000000       -0.822391         1    ;  uncertainty k = 0.769863
        29        28        32        31     9      180.000000       22.038729         2    ;  uncertainty k = 0.271382
        29        28        32        31     9        0.000000       -8.305140         3    ;  uncertainty k = 1.269833
        29        28        32        31     9      180.000000        1.298759         4    ;  uncertainty k = 0.596553
        29        30        31        32     9        0.000000       -0.480158         1    ;  uncertainty k = 0.926462
        29        30        31        32     9      180.000000       16.735216         2    ;  uncertainty k = 1.309662
        29        30        31        32     9        0.000000      -12.155219         3    ;  uncertainty k = 1.939945
        29        30        31        32     9      180.000000        1.991293         4    ;  uncertainty k = 0.750423
        29        30        31        56     9        0.000000        0.154897         1    ;  uncertainty k = 0.970262
        29        30        31        56     9      180.000000       11.842300         2    ;  uncertainty k = 0.614370
        29        30        31        56     9        0.000000        0.922189         3    ;  uncertainty k = 0.757887
        29        30        31        56     9      180.000000        0.630945         4    ;  uncertainty k = 0.172002
        30        29        28        32     9        0.000000       -0.822391         1    ;  uncertainty k = 0.769863
        30        29        28        32     9      180.000000       22.038729         2    ;  uncertainty k = 0.271382
        30        29        28        32     9        0.000000       -8.305140         3    ;  uncertainty k = 1.269833
        30        29        28        32     9      180.000000        1.298759         4    ;  uncertainty k = 0.596553
        32        31        30        55     9        0.000000        0.154897         1    ;  uncertainty k = 0.970262
        32        31        30        55     9      180.000000       11.842300         2    ;  uncertainty k = 0.614370
        32        31        30        55     9        0.000000        0.922189         3    ;  uncertainty k = 0.757887
        32        31        30        55     9      180.000000        0.630945         4    ;  uncertainty k = 0.172002
        36         7         8        38     9        0.000000        0.990728         1    ;  uncertainty k = 0.223289
        36         7         8        38     9      180.000000       -0.181195         2    ;  uncertainty k = 0.130725
        36         7         8        38     9        0.000000        0.786642         3    ;  uncertainty k = 0.071461
        36         7         8        38     9      180.000000        0.100835         4    ;  uncertainty k = 0.019441
        36         7         8        39     9        0.000000        0.990728         1    ;  uncertainty k = 0.223289
        36         7         8        39     9      180.000000       -0.181195         2    ;  uncertainty k = 0.130725
        36         7         8        39     9        0.000000        0.786642         3    ;  uncertainty k = 0.071461
        36         7         8        39     9      180.000000        0.100835         4    ;  uncertainty k = 0.019441
        37         7         8        38     9        0.000000        0.990728         1    ;  uncertainty k = 0.223289
        37         7         8        38     9      180.000000       -0.181195         2    ;  uncertainty k = 0.130725
        37         7         8        38     9        0.000000        0.786642         3    ;  uncertainty k = 0.071461
        37         7         8        38     9      180.000000        0.100835         4    ;  uncertainty k = 0.019441
        37         7         8        39     9        0.000000        0.990728         1    ;  uncertainty k = 0.223289
        37         7         8        39     9      180.000000       -0.181195         2    ;  uncertainty k = 0.130725
        37         7         8        39     9        0.000000        0.786642         3    ;  uncertainty k = 0.071461
        37         7         8        39     9      180.000000        0.100835         4    ;  uncertainty k = 0.019441
        38         8         9        40     9        0.000000        0.991223         1    ;  uncertainty k = 0.152444
        38         8         9        40     9      180.000000       -0.145175         2    ;  uncertainty k = 0.080591
        38         8         9        40     9        0.000000        0.771448         3    ;  uncertainty k = 0.048223
        38         8         9        40     9      180.000000        0.094149         4    ;  uncertainty k = 0.024110
        38         8         9        41     9        0.000000        0.991223         1    ;  uncertainty k = 0.152444
        38         8         9        41     9      180.000000       -0.145175         2    ;  uncertainty k = 0.080591
        38         8         9        41     9        0.000000        0.771448         3    ;  uncertainty k = 0.048223
        38         8         9        41     9      180.000000        0.094149         4    ;  uncertainty k = 0.024110
        39         8         9        40     9        0.000000        0.991223         1    ;  uncertainty k = 0.152444
        39         8         9        40     9      180.000000       -0.145175         2    ;  uncertainty k = 0.080591
        39         8         9        40     9        0.000000        0.771448         3    ;  uncertainty k = 0.048223
        39         8         9        40     9      180.000000        0.094149         4    ;  uncertainty k = 0.024110
        39         8         9        41     9        0.000000        0.991223         1    ;  uncertainty k = 0.152444
        39         8         9        41     9      180.000000       -0.145175         2    ;  uncertainty k = 0.080591
        39         8         9        41     9        0.000000        0.771448         3    ;  uncertainty k = 0.048223
        39         8         9        41     9      180.000000        0.094149         4    ;  uncertainty k = 0.024110
        42        12        13        44     9        0.000000        0.361947         1    ;  uncertainty k = 0.320374
        42        12        13        44     9      180.000000       -0.357654         2    ;  uncertainty k = 0.195066
        42        12        13        44     9        0.000000        0.366015         3    ;  uncertainty k = 0.125969
        42        12        13        44     9      180.000000       -0.036440         4    ;  uncertainty k = 0.081863
        43        12        13        44     9        0.000000        0.361947         1    ;  uncertainty k = 0.320374
        43        12        13        44     9      180.000000       -0.357654         2    ;  uncertainty k = 0.195066
        43        12        13        44     9        0.000000        0.366015         3    ;  uncertainty k = 0.125969
        43        12        13        44     9      180.000000       -0.036440         4    ;  uncertainty k = 0.081863
        44        13        14        45     9        0.000000        0.423998         1    ;  uncertainty k = 0.297943
        44        13        14        45     9      180.000000       -0.322771         2    ;  uncertainty k = 0.253711
        44        13        14        45     9        0.000000        0.343158         3    ;  uncertainty k = 0.128710
        44        13        14        45     9      180.000000       -0.041305         4    ;  uncertainty k = 0.061986
        44        13        14        46     9        0.000000        0.423998         1    ;  uncertainty k = 0.297943
        44        13        14        46     9      180.000000       -0.322771         2    ;  uncertainty k = 0.253711
        44        13        14        46     9        0.000000        0.343158         3    ;  uncertainty k = 0.128710
        44        13        14        46     9      180.000000       -0.041305         4    ;  uncertainty k = 0.061986
        44        13        17        49     9        0.000000        3.534566         1    ;  uncertainty k = 1.183407
        44        13        17        49     9      180.000000       -0.219654         2    ;  uncertainty k = 0.641097
        44        13        17        49     9        0.000000        0.578188         3    ;  uncertainty k = 0.579178
        44        13        17        49     9      180.000000        0.212498         4    ;  uncertainty k = 0.291708
        47        16        17        49     9        0.000000        0.424000         1    ;  uncertainty k = 0.297943
        47        16        17        49     9      180.000000       -0.322771         2    ;  uncertainty k = 0.253710
        47        16        17        49     9        0.000000        0.343158         3    ;  uncertainty k = 0.128710
        47        16        17        49     9      180.000000       -0.041305         4    ;  uncertainty k = 0.061986
        48        16        17        49     9        0.000000        0.424000         1    ;  uncertainty k = 0.297943
        48        16        17        49     9      180.000000       -0.322771         2    ;  uncertainty k = 0.253710
        48        16        17        49     9        0.000000        0.343158         3    ;  uncertainty k = 0.128710
        48        16        17        49     9      180.000000       -0.041305         4    ;  uncertainty k = 0.061986
        49        17        18        50     9        0.000000        0.361947         1    ;  uncertainty k = 0.320375
        49        17        18        50     9      180.000000       -0.357655         2    ;  uncertainty k = 0.195066
        49        17        18        50     9        0.000000        0.366015         3    ;  uncertainty k = 0.125969
        49        17        18        50     9      180.000000       -0.036440         4    ;  uncertainty k = 0.081864
        49        17        18        51     9        0.000000        0.361947         1    ;  uncertainty k = 0.320375
        49        17        18        51     9      180.000000       -0.357655         2    ;  uncertainty k = 0.195066
        49        17        18        51     9        0.000000        0.366015         3    ;  uncertainty k = 0.125969
        49        17        18        51     9      180.000000       -0.036440         4    ;  uncertainty k = 0.081864
        52        24        25        53     9        0.000000       -0.020811         1    ;  uncertainty k = 0.168739
        52        24        25        53     9      180.000000        7.628630         2    ;  uncertainty k = 0.494067
        52        24        25        53     9        0.000000       -0.419007         3    ;  uncertainty k = 0.338955
        52        24        25        53     9      180.000000        0.009969         4    ;  uncertainty k = 0.203192
        53        25        26        54     9        0.000000        0.041837         1    ;  uncertainty k = 0.123335
        53        25        26        54     9      180.000000        7.941958         2    ;  uncertainty k = 0.372063
        53        25        26        54     9        0.000000       -0.460822         3    ;  uncertainty k = 0.327229
        53        25        26        54     9      180.000000        0.152785         4    ;  uncertainty k = 0.182743
        55        30        31        56     9        0.000000       -0.942648         1    ;  uncertainty k = 1.117582
        55        30        31        56     9      180.000000        4.272735         2    ;  uncertainty k = 0.760818
        55        30        31        56     9        0.000000        1.314863         3    ;  uncertainty k = 0.353594
        55        30        31        56     9      180.000000        0.150448         4    ;  uncertainty k = 0.159865

[ dihedrals ] ; impropers
;       ai        aj        ak        al funct           phase               k        pn
         2         1         3        10     4      180.000000       30.342321         2    ;  uncertainty k = 0.053397
         2         3        10         1     4      180.000000       30.342321         2    ;  uncertainty k = 0.053397
         2        10         1         3     4      180.000000       30.342321         2    ;  uncertainty k = 0.053397
         4         3         5        11     4      180.000000       41.696638         2    ;  uncertainty k = 0.069520
         4         5        11         3     4      180.000000       41.696638         2    ;  uncertainty k = 0.069520
         4        11         3         5     4      180.000000       41.696638         2    ;  uncertainty k = 0.069520
         6         5         7        10     4      180.000000       19.834425         2    ;  uncertainty k = 0.075636
         6         7        10         5     4      180.000000       19.834425         2    ;  uncertainty k = 0.075636
         6        10         5         7     4      180.000000       19.834425         2    ;  uncertainty k = 0.075636
        10         2         6         9     4      180.000000        0.865876         2    ;  uncertainty k = 0.861498
        10         6         9         2     4      180.000000        0.865876         2    ;  uncertainty k = 0.861498
        10         9         2         6     4      180.000000        0.865876         2    ;  uncertainty k = 0.861498
        11         4        12        18     4      180.000000        0.106066         2    ;  uncertainty k = 0.237170
        11        12        18         4     4      180.000000        0.106066         2    ;  uncertainty k = 0.237170
        11        18         4        12     4      180.000000        0.106066         2    ;  uncertainty k = 0.237170
        19        15        20        21     4      180.000000       52.212280         2    ;  uncertainty k = 0.071533
        19        20        21        15     4      180.000000       52.212280         2    ;  uncertainty k = 0.071533
        19        21        15        20     4      180.000000       52.212280         2    ;  uncertainty k = 0.071533
        21        19        22        27     4      180.000000        9.307072         2    ;  uncertainty k = 0.434424
        21        22        27        19     4      180.000000        9.307072         2    ;  uncertainty k = 0.434424
        21        27        19        22     4      180.000000        9.307072         2    ;  uncertainty k = 0.434424
        22        21        23        24     4      180.000000       15.115266         2    ;  uncertainty k = 0.210077
        22        23        24        21     4      180.000000       15.115266         2    ;  uncertainty k = 0.210077
        22        24        21        23     4      180.000000       15.115266         2    ;  uncertainty k = 0.210077
        24        22        25        52     4      180.000000        2.461870         2    ;  uncertainty k = 0.103991
        24        25        52        22     4      180.000000        2.461870         2    ;  uncertainty k = 0.103991
        24        52        22        25     4      180.000000        2.461870         2    ;  uncertainty k = 0.103991
        25        24        26        53     4      180.000000        4.937369         2    ;  uncertainty k = 0.112088
        25        26        53        24     4      180.000000        4.937369         2    ;  uncertainty k = 0.112088
        25        53        24        26     4      180.000000        4.937369         2    ;  uncertainty k = 0.112088
        26        25        27        54     4      180.000000        2.847064         2    ;  uncertainty k = 0.193191
        26        27        54        25     4      180.000000        2.847064         2    ;  uncertainty k = 0.193191
        26        54        25        27     4      180.000000        2.847064         2    ;  uncertainty k = 0.193191
        27        21        26        28     4      180.000000       12.584197         2    ;  uncertainty k = 0.129690
        27        26        28        21     4      180.000000       12.584197         2    ;  uncertainty k = 0.129690
        27        28        21        26     4      180.000000       12.584197         2    ;  uncertainty k = 0.129690
        30        29        31        55     4      180.000000        0.414726         2    ;  uncertainty k = 0.408832
        30        31        55        29     4      180.000000        0.414726         2    ;  uncertainty k = 0.408832
        30        55        29        31     4      180.000000        0.414726         2    ;  uncertainty k = 0.408832
        31        30        32        56     4      180.000000        0.414726         2    ;  uncertainty k = 0.408832
        31        32        56        30     4      180.000000        0.414726         2    ;  uncertainty k = 0.408832
        31        56        30        32     4      180.000000        0.414726         2    ;  uncertainty k = 0.408832

[ pairs ]
;       ai        aj funct
         1         4     1
         1         6     1
         1         9     1
         2         5     1
         2         7     1
         2         8     1
         2        11     1
         2        40     1
         2        41     1
         3         6     1
         3         9     1
         3        12     1
         3        18     1
         3        33     1
         3        34     1
         3        35     1
         4         7     1
         4        10     1
         4        13     1
         4        17     1
         4        42     1
         4        43     1
         4        50     1
         4        51     1
         5         8     1
         5         9     1
         5        12     1
         5        18     1
         5        36     1
         5        37     1
         6        11     1
         6        38     1
         6        39     1
         6        40     1
         6        41     1
         7        40     1
         7        41     1
         9        36     1
         9        37     1
        10        33     1
        10        34     1
        10        35     1
        10        36     1
        10        37     1
        10        38     1
        10        39     1
        11        14     1
        11        16     1
        11        44     1
        11        49     1
        12        15     1
        12        16     1
        12        45     1
        12        46     1
        12        49     1
        12        50     1
        12        51     1
        13        19     1
        13        47     1
        13        48     1
        13        50     1
        13        51     1
        14        18     1
        14        20     1
        14        21     1
        14        42     1
        14        43     1
        14        47     1
        14        48     1
        14        49     1
        15        18     1
        15        22     1
        15        27     1
        15        44     1
        15        49     1
        16        20     1
        16        21     1
        16        44     1
        16        45     1
        16        46     1
        16        50     1
        16        51     1
        17        19     1
        17        42     1
        17        43     1
        17        45     1
        17        46     1
        18        42     1
        18        43     1
        18        44     1
        18        47     1
        18        48     1
        19        23     1
        19        24     1
        19        26     1
        19        28     1
        19        45     1
        19        46     1
        19        47     1
        19        48     1
        20        22     1
        20        27     1
        21        25     1
        21        29     1
        21        32     1
        21        52     1
        21        54     1
        22        26     1
        22        28     1
        22        53     1
        23        25     1
        23        27     1
        23        52     1
        24        27     1
        24        54     1
        25        28     1
        26        29     1
        26        32     1
        26        52     1
        27        30     1
        27        31     1
        27        53     1
        28        54     1
        28        55     1
        28        56     1
        29        56     1
        32        55     1
        36        38     1
        36        39     1
        37        38     1
        37        39     1
        38        40     1
        38        41     1
        39        40     1
        39        41     1
        42        44     1
        43        44     1
        44        45     1
        44        46     1
        44        49     1
        47        49     1
        48        49     1
        49        50     1
        49        51     1
        52        53     1
        53        54     1
        55        56     1
