; ITP file created by ByteFF-joint-25, 2025-07-14 11:28:34.816806

[ atomtypes ]
;name           bonded.type        at.num        mass        charge   ptype           sigma         epsilon
 c0bf                                   6      0.0000       0.00000       A     3.39791e-01     4.50885e-01    ;  uncertainty sigma = 0.000005, epsilon = 0.000764
 o1bf                                   8      0.0000       0.00000       A     3.15628e-01     3.03395e-01    ;  uncertainty sigma = 0.000023, epsilon = 0.001164
 c2bf                                   6      0.0000       0.00000       A     3.31531e-01     4.13419e-01    ;  uncertainty sigma = 0.000010, epsilon = 0.001773
 c3bf                                   6      0.0000       0.00000       A     3.31540e-01     4.13461e-01    ;  uncertainty sigma = 0.000004, epsilon = 0.000907
 n4bf                                   7      0.0000       0.00000       A     3.38389e-01     3.92973e-01    ;  uncertainty sigma = 0.000021, epsilon = 0.000937
 c5bf                                   6      0.0000       0.00000       A     3.31603e-01     4.13609e-01    ;  uncertainty sigma = 0.000039, epsilon = 0.000721
 c6bf                                   6      0.0000       0.00000       A     3.31476e-01     4.13291e-01    ;  uncertainty sigma = 0.000008, epsilon = 0.001485
 o7bf                                   8      0.0000       0.00000       A     3.04816e-01     6.12455e-01    ;  uncertainty sigma = 0.000014, epsilon = 0.001156
 n8bf                                   7      0.0000       0.00000       A     3.18089e-01     6.83457e-01    ;  uncertainty sigma = 0.000019, epsilon = 0.001415
 c9bf                                   6      0.0000       0.00000       A     3.39785e-01     4.51242e-01    ;  uncertainty sigma = 0.000005, epsilon = 0.000650
 c10bf                                  6      0.0000       0.00000       A     3.39776e-01     4.51373e-01    ;  uncertainty sigma = 0.000009, epsilon = 0.000969
 c11bf                                  6      0.0000       0.00000       A     3.39774e-01     4.50953e-01    ;  uncertainty sigma = 0.000012, epsilon = 0.001229
 n12bf                                  7      0.0000       0.00000       A     3.18950e-01     8.99076e-01    ;  uncertainty sigma = 0.000052, epsilon = 0.003577
 c13bf                                  6      0.0000       0.00000       A     3.39774e-01     4.50953e-01    ;  uncertainty sigma = 0.000012, epsilon = 0.001229
 c14bf                                  6      0.0000       0.00000       A     3.39776e-01     4.51373e-01    ;  uncertainty sigma = 0.000009, epsilon = 0.000969
 c15bf                                  6      0.0000       0.00000       A     3.39785e-01     4.51243e-01    ;  uncertainty sigma = 0.000005, epsilon = 0.000650
 c16bf                                  6      0.0000       0.00000       A     3.31545e-01     4.13196e-01    ;  uncertainty sigma = 0.000018, epsilon = 0.000667
 n17bf                                  7      0.0000       0.00000       A     3.38407e-01     3.93685e-01    ;  uncertainty sigma = 0.000013, epsilon = 0.000791
 c18bf                                  6      0.0000       0.00000       A     3.31511e-01     4.13145e-01    ;  uncertainty sigma = 0.000011, epsilon = 0.000579
 c19bf                                  6      0.0000       0.00000       A     3.39773e-01     4.50930e-01    ;  uncertainty sigma = 0.000007, epsilon = 0.000592
 c20bf                                  6      0.0000       0.00000       A     3.31523e-01     4.13243e-01    ;  uncertainty sigma = 0.000013, epsilon = 0.000737
 c21bf                                  6      0.0000       0.00000       A     3.31511e-01     4.13145e-01    ;  uncertainty sigma = 0.000011, epsilon = 0.000579
 c22bf                                  6      0.0000       0.00000       A     3.39773e-01     4.50930e-01    ;  uncertainty sigma = 0.000007, epsilon = 0.000592
 n23bf                                  7      0.0000       0.00000       A     3.38407e-01     3.93685e-01    ;  uncertainty sigma = 0.000013, epsilon = 0.000791
 c24bf                                  6      0.0000       0.00000       A     3.31569e-01     4.12783e-01    ;  uncertainty sigma = 0.000014, epsilon = 0.001567
 c25bf                                  6      0.0000       0.00000       A     3.31522e-01     4.13591e-01    ;  uncertainty sigma = 0.000007, epsilon = 0.001151
 n26bf                                  7      0.0000       0.00000       A     3.20627e-01     8.54025e-01    ;  uncertainty sigma = 0.000047, epsilon = 0.004539
 n27bf                                  7      0.0000       0.00000       A     3.38413e-01     3.93618e-01    ;  uncertainty sigma = 0.000008, epsilon = 0.000654
 c28bf                                  6      0.0000       0.00000       A     3.31537e-01     4.13587e-01    ;  uncertainty sigma = 0.000007, epsilon = 0.000835
 c29bf                                  6      0.0000       0.00000       A     3.31537e-01     4.13587e-01    ;  uncertainty sigma = 0.000007, epsilon = 0.000835
 n30bf                                  7      0.0000       0.00000       A     3.38413e-01     3.93618e-01    ;  uncertainty sigma = 0.000008, epsilon = 0.000654
 h31bf                                  1      0.0000       0.00000       A     2.42205e-01     8.67538e-02    ;  uncertainty sigma = 0.000015, epsilon = 0.000624
 h32bf                                  1      0.0000       0.00000       A     2.42205e-01     8.67538e-02    ;  uncertainty sigma = 0.000015, epsilon = 0.000624
 h33bf                                  1      0.0000       0.00000       A     2.42205e-01     8.67538e-02    ;  uncertainty sigma = 0.000015, epsilon = 0.000624
 h34bf                                  1      0.0000       0.00000       A     2.53660e-01     6.70404e-02    ;  uncertainty sigma = 0.000038, epsilon = 0.000654
 h35bf                                  1      0.0000       0.00000       A     2.42194e-01     8.66543e-02    ;  uncertainty sigma = 0.000021, epsilon = 0.000863
 h36bf                                  1      0.0000       0.00000       A     2.42194e-01     8.66543e-02    ;  uncertainty sigma = 0.000021, epsilon = 0.000863
 h37bf                                  1      0.0000       0.00000       A     2.59994e-01     8.68892e-02    ;  uncertainty sigma = 0.000026, epsilon = 0.000553
 h38bf                                  1      0.0000       0.00000       A     2.42199e-01     8.66323e-02    ;  uncertainty sigma = 0.000024, epsilon = 0.001250
 h39bf                                  1      0.0000       0.00000       A     2.42199e-01     8.66323e-02    ;  uncertainty sigma = 0.000024, epsilon = 0.001250
 h40bf                                  1      0.0000       0.00000       A     2.42199e-01     8.66324e-02    ;  uncertainty sigma = 0.000024, epsilon = 0.001250
 h41bf                                  1      0.0000       0.00000       A     2.42199e-01     8.66324e-02    ;  uncertainty sigma = 0.000024, epsilon = 0.001250
 h42bf                                  1      0.0000       0.00000       A     2.59994e-01     8.68893e-02    ;  uncertainty sigma = 0.000026, epsilon = 0.000553
 h43bf                                  1      0.0000       0.00000       A     2.42194e-01     8.66544e-02    ;  uncertainty sigma = 0.000021, epsilon = 0.000864
 h44bf                                  1      0.0000       0.00000       A     2.42194e-01     8.66544e-02    ;  uncertainty sigma = 0.000021, epsilon = 0.000864
 h45bf                                  1      0.0000       0.00000       A     2.60034e-01     8.66333e-02    ;  uncertainty sigma = 0.000007, epsilon = 0.000537
 h46bf                                  1      0.0000       0.00000       A     2.60034e-01     8.66333e-02    ;  uncertainty sigma = 0.000007, epsilon = 0.000537
 h47bf                                  1      0.0000       0.00000       A     2.60034e-01     8.66333e-02    ;  uncertainty sigma = 0.000007, epsilon = 0.000537
 h48bf                                  1      0.0000       0.00000       A     2.62580e-01     6.71311e-02    ;  uncertainty sigma = 0.000016, epsilon = 0.000304
 h49bf                                  1      0.0000       0.00000       A     2.60034e-01     8.66332e-02    ;  uncertainty sigma = 0.000007, epsilon = 0.000537
 h50bf                                  1      0.0000       0.00000       A     2.60034e-01     8.66332e-02    ;  uncertainty sigma = 0.000007, epsilon = 0.000537
 h51bf                                  1      0.0000       0.00000       A     2.60034e-01     8.66332e-02    ;  uncertainty sigma = 0.000007, epsilon = 0.000537
 h52bf                                  1      0.0000       0.00000       A     2.62532e-01     6.73310e-02    ;  uncertainty sigma = 0.000009, epsilon = 0.000809
 h53bf                                  1      0.0000       0.00000       A     2.53604e-01     6.70807e-02    ;  uncertainty sigma = 0.000028, epsilon = 0.000600
 h54bf                                  1      0.0000       0.00000       A     2.53604e-01     6.70806e-02    ;  uncertainty sigma = 0.000028, epsilon = 0.000600

[ moleculetype ]
;name             nrexcl
 MOL                   3

[ atoms ]
;       nr            type      resi   res      atom      cgnr      charge          mass ; qtot
         1            c0bf         1   UNL        c0         1     0.11878       12.0110 ; qtot    0.119
         2            o1bf         1   UNL        o1         2    -0.31625       15.9990 ; qtot   -0.197
         3            c2bf         1   UNL        c2         3     0.04681       12.0110 ; qtot   -0.151
         4            c3bf         1   UNL        c3         4     0.34775       12.0110 ; qtot    0.197
         5            n4bf         1   UNL        n4         5    -0.62503       14.0070 ; qtot   -0.428
         6            c5bf         1   UNL        c5         6     0.37205       12.0110 ; qtot   -0.056
         7            c6bf         1   UNL        c6         7     0.59854       12.0110 ; qtot    0.543
         8            o7bf         1   UNL        o7         8    -0.58937       15.9990 ; qtot   -0.047
         9            n8bf         1   UNL        n8         9    -0.46783       14.0070 ; qtot   -0.515
        10            c9bf         1   UNL        c9        10     0.11360       12.0110 ; qtot   -0.401
        11           c10bf         1   UNL       c10        11    -0.09725       12.0110 ; qtot   -0.498
        12           c11bf         1   UNL       c11        12     0.23390       12.0110 ; qtot   -0.264
        13           n12bf         1   UNL       n12        13    -0.79085       14.0070 ; qtot   -1.055
        14           c13bf         1   UNL       c13        14     0.23390       12.0110 ; qtot   -0.821
        15           c14bf         1   UNL       c14        15    -0.09725       12.0110 ; qtot   -0.919
        16           c15bf         1   UNL       c15        16     0.11360       12.0110 ; qtot   -0.805
        17           c16bf         1   UNL       c16        17     0.90706       12.0110 ; qtot    0.102
        18           n17bf         1   UNL       n17        18    -0.77862       14.0070 ; qtot   -0.676
        19           c18bf         1   UNL       c18        19     0.48649       12.0110 ; qtot   -0.190
        20           c19bf         1   UNL       c19        20    -0.15162       12.0110 ; qtot   -0.342
        21           c20bf         1   UNL       c20        21    -0.41183       12.0110 ; qtot   -0.753
        22           c21bf         1   UNL       c21        22     0.48649       12.0110 ; qtot   -0.267
        23           c22bf         1   UNL       c22        23    -0.15162       12.0110 ; qtot   -0.419
        24           n23bf         1   UNL       n23        24    -0.77862       14.0070 ; qtot   -1.197
        25           c24bf         1   UNL       c24        25    -0.02242       12.0110 ; qtot   -1.220
        26           c25bf         1   UNL       c25        26    -0.14065       12.0110 ; qtot   -1.360
        27           n26bf         1   UNL       n26        27     0.30800       14.0070 ; qtot   -1.052
        28           n27bf         1   UNL       n27        28    -0.47083       14.0070 ; qtot   -1.523
        29           c28bf         1   UNL       c28        29     0.20564       12.0110 ; qtot   -1.317
        30           c29bf         1   UNL       c29        30     0.20564       12.0110 ; qtot   -1.112
        31           n30bf         1   UNL       n30        31    -0.47083       14.0070 ; qtot   -1.583
        32           h31bf         1   UNL       h31        32     0.04493        1.0080 ; qtot   -1.538
        33           h32bf         1   UNL       h32        33     0.04493        1.0080 ; qtot   -1.493
        34           h33bf         1   UNL       h33        34     0.04493        1.0080 ; qtot   -1.448
        35           h34bf         1   UNL       h34        35     0.03495        1.0080 ; qtot   -1.413
        36           h35bf         1   UNL       h35        36     0.06162        1.0080 ; qtot   -1.351
        37           h36bf         1   UNL       h36        37     0.06162        1.0080 ; qtot   -1.290
        38           h37bf         1   UNL       h37        38     0.07237        1.0080 ; qtot   -1.217
        39           h38bf         1   UNL       h38        39     0.05891        1.0080 ; qtot   -1.158
        40           h39bf         1   UNL       h39        40     0.05891        1.0080 ; qtot   -1.099
        41           h40bf         1   UNL       h40        41     0.05891        1.0080 ; qtot   -1.041
        42           h41bf         1   UNL       h41        42     0.05891        1.0080 ; qtot   -0.982
        43           h42bf         1   UNL       h42        43     0.07237        1.0080 ; qtot   -0.909
        44           h43bf         1   UNL       h43        44     0.06162        1.0080 ; qtot   -0.848
        45           h44bf         1   UNL       h44        45     0.06162        1.0080 ; qtot   -0.786
        46           h45bf         1   UNL       h45        46     0.05868        1.0080 ; qtot   -0.727
        47           h46bf         1   UNL       h46        47     0.05868        1.0080 ; qtot   -0.669
        48           h47bf         1   UNL       h47        48     0.05868        1.0080 ; qtot   -0.610
        49           h48bf         1   UNL       h48        49     0.15114        1.0080 ; qtot   -0.459
        50           h49bf         1   UNL       h49        50     0.05868        1.0080 ; qtot   -0.400
        51           h50bf         1   UNL       h50        51     0.05868        1.0080 ; qtot   -0.341
        52           h51bf         1   UNL       h51        52     0.05868        1.0080 ; qtot   -0.283
        53           h52bf         1   UNL       h52        53     0.17294        1.0080 ; qtot   -0.110
        54           h53bf         1   UNL       h53        54     0.05496        1.0080 ; qtot   -0.055
        55           h54bf         1   UNL       h54        55     0.05490        1.0080 ; qtot   -0.000

[ bonds ]
;       ai        aj funct               r               k
         1         2     1        0.142191   252497.377295    ;  uncertainty r = 0.000045, k = 3.317995
         1        32     1        0.109601   311317.741895    ;  uncertainty r = 0.000015, k = 2.051806
         1        33     1        0.109601   311317.741895    ;  uncertainty r = 0.000015, k = 2.051806
         1        34     1        0.109601   311317.741895    ;  uncertainty r = 0.000015, k = 2.051806
         2         3     1        0.135916   319581.422803    ;  uncertainty r = 0.000106, k = 12.217191
         3         4     1        0.139657   348321.958252    ;  uncertainty r = 0.000109, k = 4.294915
         3        26     1        0.139040   368129.612842    ;  uncertainty r = 0.000122, k = 7.024410
         4         5     1        0.132925   383766.929785    ;  uncertainty r = 0.000079, k = 12.006921
         4        35     1        0.109074   338448.571191    ;  uncertainty r = 0.000030, k = 3.287073
         5         6     1        0.133328   431598.906055    ;  uncertainty r = 0.000054, k = 15.232208
         6         7     1        0.150888   236707.527197    ;  uncertainty r = 0.000156, k = 19.303653
         6        25     1        0.139719   309588.930664    ;  uncertainty r = 0.000188, k = 9.321425
         7         8     1        0.123383   668472.296777    ;  uncertainty r = 0.000069, k = 10.814765
         7         9     1        0.135047   325312.818408    ;  uncertainty r = 0.000089, k = 12.901244
         9        10     1        0.147055   239228.525098    ;  uncertainty r = 0.000049, k = 14.387600
         9        16     1        0.147055   239228.525098    ;  uncertainty r = 0.000049, k = 14.387608
        10        11     1        0.153483   216575.423633    ;  uncertainty r = 0.000027, k = 7.577979
        10        36     1        0.109407   307491.797705    ;  uncertainty r = 0.000028, k = 1.193802
        10        37     1        0.109407   307491.797705    ;  uncertainty r = 0.000028, k = 1.193802
        11        12     1        0.153378   218045.467334    ;  uncertainty r = 0.000067, k = 7.088229
        11        15     1        0.154451   200722.535181    ;  uncertainty r = 0.000080, k = 20.796812
        11        38     1        0.109350   305021.261133    ;  uncertainty r = 0.000029, k = 3.829687
        12        13     1        0.146381   223708.423486    ;  uncertainty r = 0.000058, k = 14.342784
        12        39     1        0.109551   306518.450781    ;  uncertainty r = 0.000069, k = 2.534279
        12        40     1        0.109551   306518.450781    ;  uncertainty r = 0.000069, k = 2.534279
        13        14     1        0.146381   223708.397949    ;  uncertainty r = 0.000058, k = 14.342739
        13        17     1        0.136652   318374.998682    ;  uncertainty r = 0.000092, k = 21.200731
        14        15     1        0.153378   218045.441797    ;  uncertainty r = 0.000067, k = 7.088210
        14        41     1        0.109551   306518.450781    ;  uncertainty r = 0.000069, k = 2.534269
        14        42     1        0.109551   306518.450781    ;  uncertainty r = 0.000069, k = 2.534269
        15        16     1        0.153483   216575.449170    ;  uncertainty r = 0.000027, k = 7.578036
        15        43     1        0.109350   305021.235596    ;  uncertainty r = 0.000029, k = 3.829675
        16        44     1        0.109407   307491.772168    ;  uncertainty r = 0.000028, k = 1.193814
        16        45     1        0.109407   307491.772168    ;  uncertainty r = 0.000028, k = 1.193814
        17        18     1        0.135351   495763.395996    ;  uncertainty r = 0.000102, k = 13.751660
        17        24     1        0.135351   495763.395996    ;  uncertainty r = 0.000102, k = 13.751690
        18        19     1        0.134238   464612.668164    ;  uncertainty r = 0.000041, k = 6.904050
        19        20     1        0.150631   258312.687842    ;  uncertainty r = 0.000036, k = 5.578428
        19        21     1        0.140287   430446.058789    ;  uncertainty r = 0.000066, k = 4.969267
        20        46     1        0.109444   310537.583203    ;  uncertainty r = 0.000015, k = 1.598101
        20        47     1        0.109444   310537.583203    ;  uncertainty r = 0.000015, k = 1.598101
        20        48     1        0.109444   310537.583203    ;  uncertainty r = 0.000015, k = 1.598101
        21        22     1        0.140287   430446.058789    ;  uncertainty r = 0.000066, k = 4.969234
        21        49     1        0.108737   344393.201660    ;  uncertainty r = 0.000026, k = 3.476266
        22        23     1        0.150631   258312.662305    ;  uncertainty r = 0.000036, k = 5.578455
        22        24     1        0.134238   464612.770313    ;  uncertainty r = 0.000041, k = 6.904054
        23        50     1        0.109444   310537.608740    ;  uncertainty r = 0.000015, k = 1.598090
        23        51     1        0.109444   310537.608740    ;  uncertainty r = 0.000015, k = 1.598090
        23        52     1        0.109444   310537.608740    ;  uncertainty r = 0.000015, k = 1.598090
        25        26     1        0.138652   345125.248437    ;  uncertainty r = 0.000227, k = 12.359898
        25        27     1        0.140220   319480.142627    ;  uncertainty r = 0.000299, k = 10.671705
        26        53     1        0.108736   336294.694775    ;  uncertainty r = 0.000030, k = 1.006952
        27        28     1        0.134452   228201.371436    ;  uncertainty r = 0.000078, k = 14.657213
        27        31     1        0.134452   228201.371436    ;  uncertainty r = 0.000078, k = 14.657213
        28        29     1        0.132944   463455.224219    ;  uncertainty r = 0.000063, k = 7.681554
        29        30     1        0.141781   249584.001709    ;  uncertainty r = 0.000103, k = 15.332670
        29        54     1        0.108418   339910.136572    ;  uncertainty r = 0.000037, k = 1.124299
        30        31     1        0.132944   463455.224219    ;  uncertainty r = 0.000063, k = 7.681554
        30        55     1        0.108418   339910.136572    ;  uncertainty r = 0.000037, k = 1.124299

[ angles ]
;       ai        aj        ak funct           theta             cth
         1         2         3     1      109.552734      509.467471    ;  uncertainty theta = 0.001842, k = 0.054039
         2         1        32     1      108.778488      444.197013    ;  uncertainty theta = 0.002040, k = 0.024563
         2         1        33     1      108.778488      444.197013    ;  uncertainty theta = 0.002040, k = 0.024563
         2         1        34     1      108.778488      444.197013    ;  uncertainty theta = 0.002040, k = 0.024563
         2         3         4     1      119.335106      407.359605    ;  uncertainty theta = 0.004286, k = 0.158032
         2         3        26     1      120.678627      424.406264    ;  uncertainty theta = 0.003432, k = 0.065648
         3         4         5     1      122.830643      664.980199    ;  uncertainty theta = 0.002193, k = 0.184188
         3         4        35     1      120.447365      262.168131    ;  uncertainty theta = 0.003251, k = 0.143118
         3        26        25     1      118.405235      524.473491    ;  uncertainty theta = 0.004992, k = 0.175695
         3        26        53     1      121.461990      266.318948    ;  uncertainty theta = 0.005750, k = 0.211015
         4         3        26     1      118.059265      342.490719    ;  uncertainty theta = 0.006495, k = 0.280135
         4         5         6     1      122.020584      421.526828    ;  uncertainty theta = 0.008938, k = 0.304458
         5         4        35     1      116.875710      340.645184    ;  uncertainty theta = 0.005352, k = 0.248302
         5         6         7     1      117.192589      440.886797    ;  uncertainty theta = 0.003250, k = 0.194187
         5         6        25     1      124.362244      603.378754    ;  uncertainty theta = 0.006065, k = 0.244639
         6         7         8     1      121.982300      445.374434    ;  uncertainty theta = 0.004522, k = 0.120249
         6         7         9     1      111.352806      384.492369    ;  uncertainty theta = 0.005780, k = 0.139463
         6        25        26     1      124.561562      357.949704    ;  uncertainty theta = 0.007813, k = 0.297292
         6        25        27     1      117.923790      415.170130    ;  uncertainty theta = 0.004187, k = 0.412335
         7         6        25     1      120.987160      367.414874    ;  uncertainty theta = 0.006560, k = 0.323171
         7         9        10     1      117.683365      362.310612    ;  uncertainty theta = 0.004049, k = 0.132658
         7         9        16     1      117.683365      362.310612    ;  uncertainty theta = 0.004049, k = 0.132657
         8         7         9     1      125.193222      741.104918    ;  uncertainty theta = 0.003382, k = 0.149784
         9        10        11     1      106.058067      795.674592    ;  uncertainty theta = 0.003237, k = 0.196804
         9        10        36     1      109.185745      457.390378    ;  uncertainty theta = 0.001621, k = 0.091421
         9        10        37     1      109.185745      457.390378    ;  uncertainty theta = 0.001621, k = 0.091421
         9        16        15     1      106.058067      795.674464    ;  uncertainty theta = 0.003237, k = 0.196804
         9        16        44     1      109.185745      457.390378    ;  uncertainty theta = 0.001621, k = 0.091421
         9        16        45     1      109.185745      457.390378    ;  uncertainty theta = 0.001621, k = 0.091421
        10         9        16     1      114.538513      531.637576    ;  uncertainty theta = 0.002583, k = 0.157167
        10        11        12     1      112.949661      497.404762    ;  uncertainty theta = 0.002421, k = 0.264887
        10        11        15     1      106.556213      683.335380    ;  uncertainty theta = 0.002370, k = 0.112699
        10        11        38     1      108.932266      380.845861    ;  uncertainty theta = 0.002642, k = 0.151569
        11        10        36     1      109.865158      397.575509    ;  uncertainty theta = 0.001989, k = 0.094014
        11        10        37     1      109.865158      397.575509    ;  uncertainty theta = 0.001989, k = 0.094014
        11        12        13     1      105.543358      834.662608    ;  uncertainty theta = 0.001817, k = 0.093259
        11        12        39     1      109.942749      401.681014    ;  uncertainty theta = 0.001744, k = 0.042629
        11        12        40     1      109.942749      401.681014    ;  uncertainty theta = 0.001744, k = 0.042629
        11        15        14     1      106.407143      696.228428    ;  uncertainty theta = 0.000820, k = 0.121960
        11        15        16     1      106.556229      683.335380    ;  uncertainty theta = 0.002369, k = 0.112699
        11        15        43     1      109.787766      408.249893    ;  uncertainty theta = 0.001833, k = 0.098421
        12        11        15     1      106.407143      696.228364    ;  uncertainty theta = 0.000820, k = 0.121960
        12        11        38     1      108.909218      387.529561    ;  uncertainty theta = 0.002428, k = 0.196424
        12        13        14     1      112.639450      489.228386    ;  uncertainty theta = 0.009972, k = 0.334405
        12        13        17     1      113.699562      433.285645    ;  uncertainty theta = 0.003934, k = 0.215172
        13        12        39     1      108.562340      456.415882    ;  uncertainty theta = 0.001202, k = 0.062362
        13        12        40     1      108.562340      456.415882    ;  uncertainty theta = 0.001202, k = 0.062362
        13        14        15     1      105.543358      834.662672    ;  uncertainty theta = 0.001817, k = 0.093259
        13        14        41     1      108.562340      456.415882    ;  uncertainty theta = 0.001202, k = 0.062362
        13        14        42     1      108.562340      456.415882    ;  uncertainty theta = 0.001202, k = 0.062362
        13        17        18     1      119.537033      549.082071    ;  uncertainty theta = 0.007399, k = 0.202208
        13        17        24     1      119.537033      549.082007    ;  uncertainty theta = 0.007399, k = 0.202208
        14        13        17     1      113.699562      433.285645    ;  uncertainty theta = 0.003934, k = 0.215172
        14        15        16     1      112.949661      497.404762    ;  uncertainty theta = 0.002421, k = 0.264887
        14        15        43     1      108.909218      387.529561    ;  uncertainty theta = 0.002428, k = 0.196423
        15        11        38     1      109.787766      408.249925    ;  uncertainty theta = 0.001833, k = 0.098421
        15        14        41     1      109.942749      401.681014    ;  uncertainty theta = 0.001744, k = 0.042629
        15        14        42     1      109.942749      401.681014    ;  uncertainty theta = 0.001744, k = 0.042629
        15        16        44     1      109.865158      397.575509    ;  uncertainty theta = 0.001989, k = 0.094014
        15        16        45     1      109.865158      397.575509    ;  uncertainty theta = 0.001989, k = 0.094014
        16        15        43     1      108.932266      380.845829    ;  uncertainty theta = 0.002642, k = 0.151570
        17        18        19     1      115.347641      408.898855    ;  uncertainty theta = 0.006383, k = 0.283100
        17        24        22     1      115.347641      408.898887    ;  uncertainty theta = 0.006383, k = 0.283100
        18        17        24     1      129.113480      717.709733    ;  uncertainty theta = 0.004729, k = 0.118642
        18        19        20     1      118.694351      504.935496    ;  uncertainty theta = 0.002079, k = 0.183388
        18        19        21     1      120.465759      656.141040    ;  uncertainty theta = 0.004510, k = 0.102828
        19        20        46     1      108.943436      385.594391    ;  uncertainty theta = 0.001293, k = 0.046207
        19        20        47     1      108.943436      385.594391    ;  uncertainty theta = 0.001293, k = 0.046207
        19        20        48     1      108.943436      385.594391    ;  uncertainty theta = 0.001293, k = 0.046207
        19        21        22     1      116.498535      460.598349    ;  uncertainty theta = 0.005053, k = 0.122034
        19        21        49     1      121.718430      273.369457    ;  uncertainty theta = 0.001159, k = 0.085455
        20        19        21     1      122.372597      418.636154    ;  uncertainty theta = 0.002202, k = 0.178974
        21        22        23     1      122.372597      418.636154    ;  uncertainty theta = 0.002202, k = 0.178974
        21        22        24     1      120.465759      656.141103    ;  uncertainty theta = 0.004510, k = 0.102828
        22        21        49     1      121.718430      273.369457    ;  uncertainty theta = 0.001159, k = 0.085456
        22        23        50     1      108.943436      385.594391    ;  uncertainty theta = 0.001293, k = 0.046207
        22        23        51     1      108.943436      385.594391    ;  uncertainty theta = 0.001293, k = 0.046207
        22        23        52     1      108.943436      385.594391    ;  uncertainty theta = 0.001293, k = 0.046207
        23        22        24     1      118.694351      504.935560    ;  uncertainty theta = 0.002079, k = 0.183389
        25        26        53     1      118.795876      260.102322    ;  uncertainty theta = 0.007920, k = 0.084961
        25        27        28     1      115.778122      430.434522    ;  uncertainty theta = 0.008859, k = 0.088551
        25        27        31     1      115.778122      430.434522    ;  uncertainty theta = 0.008859, k = 0.088551
        26        25        27     1      118.431908      458.169260    ;  uncertainty theta = 0.003073, k = 0.202467
        27        28        29     1      105.294388      919.089121    ;  uncertainty theta = 0.004326, k = 0.158122
        27        31        30     1      105.294388      919.089121    ;  uncertainty theta = 0.004326, k = 0.158122
        28        27        31     1      113.982582     1156.321079    ;  uncertainty theta = 0.003976, k = 0.218149
        28        29        30     1      108.888649      887.374011    ;  uncertainty theta = 0.003901, k = 0.098446
        28        29        54     1      119.788475      274.010949    ;  uncertainty theta = 0.003762, k = 0.111795
        29        30        31     1      108.888649      887.374011    ;  uncertainty theta = 0.003901, k = 0.098446
        29        30        55     1      127.065453      242.460680    ;  uncertainty theta = 0.004115, k = 0.077998
        30        29        54     1      127.065453      242.460680    ;  uncertainty theta = 0.004115, k = 0.077998
        31        30        55     1      119.788475      274.010949    ;  uncertainty theta = 0.003762, k = 0.111795
        32         1        33     1      109.091202      330.323021    ;  uncertainty theta = 0.001593, k = 0.012720
        32         1        34     1      109.091202      330.323021    ;  uncertainty theta = 0.001593, k = 0.012720
        33         1        34     1      109.091202      330.323021    ;  uncertainty theta = 0.001593, k = 0.012720
        36        10        37     1      105.398071      309.077582    ;  uncertainty theta = 0.003779, k = 0.079218
        39        12        40     1      105.122986      312.324913    ;  uncertainty theta = 0.002382, k = 0.114503
        41        14        42     1      105.123001      312.324913    ;  uncertainty theta = 0.002382, k = 0.114503
        44        16        45     1      105.398071      309.077582    ;  uncertainty theta = 0.003779, k = 0.079218
        46        20        47     1      107.153793      312.530199    ;  uncertainty theta = 0.001242, k = 0.032267
        46        20        48     1      107.153793      312.530199    ;  uncertainty theta = 0.001242, k = 0.032267
        47        20        48     1      107.153793      312.530199    ;  uncertainty theta = 0.001242, k = 0.032267
        50        23        51     1      107.153793      312.530167    ;  uncertainty theta = 0.001242, k = 0.032267
        50        23        52     1      107.153793      312.530167    ;  uncertainty theta = 0.001242, k = 0.032267
        51        23        52     1      107.153786      312.530135    ;  uncertainty theta = 0.001242, k = 0.032267

[ dihedrals ] ; propers for gromacs 4.5 or higher, use funct 9
;       ai        aj        ak        al funct           phase               k        pn
         1         2         3         4     9        0.000000        0.312958         1    ;  uncertainty k = 0.280103
         1         2         3         4     9      180.000000        7.847285         2    ;  uncertainty k = 0.340866
         1         2         3         4     9        0.000000        0.742409         3    ;  uncertainty k = 0.203687
         1         2         3         4     9      180.000000        0.285825         4    ;  uncertainty k = 0.099678
         1         2         3        26     9        0.000000       -0.390182         1    ;  uncertainty k = 0.379570
         1         2         3        26     9      180.000000        7.932053         2    ;  uncertainty k = 0.120156
         1         2         3        26     9        0.000000        0.360998         3    ;  uncertainty k = 0.189969
         1         2         3        26     9      180.000000        0.273113         4    ;  uncertainty k = 0.044891
         2         3         4         5     9        0.000000       -0.011149         1    ;  uncertainty k = 0.520325
         2         3         4         5     9      180.000000       10.485459         2    ;  uncertainty k = 0.791171
         2         3         4         5     9        0.000000        0.907180         3    ;  uncertainty k = 0.358593
         2         3         4         5     9      180.000000        1.364996         4    ;  uncertainty k = 0.350247
         2         3         4        35     9        0.000000        0.098054         1    ;  uncertainty k = 0.280400
         2         3         4        35     9      180.000000        7.262481         2    ;  uncertainty k = 0.293951
         2         3         4        35     9        0.000000        0.628583         3    ;  uncertainty k = 0.182811
         2         3         4        35     9      180.000000        0.852675         4    ;  uncertainty k = 0.262051
         2         3        26        25     9        0.000000        0.043484         1    ;  uncertainty k = 0.315709
         2         3        26        25     9      180.000000       10.839396         2    ;  uncertainty k = 0.380356
         2         3        26        25     9        0.000000        1.260378         3    ;  uncertainty k = 0.228999
         2         3        26        25     9      180.000000        1.513831         4    ;  uncertainty k = 0.190161
         2         3        26        53     9        0.000000       -0.104963         1    ;  uncertainty k = 0.313445
         2         3        26        53     9      180.000000        8.623096         2    ;  uncertainty k = 0.260547
         2         3        26        53     9        0.000000        0.688335         3    ;  uncertainty k = 0.167206
         2         3        26        53     9      180.000000        1.052397         4    ;  uncertainty k = 0.205281
         3         2         1        32     9        0.000000        0.751235         1    ;  uncertainty k = 0.413219
         3         2         1        32     9      180.000000       -1.520617         2    ;  uncertainty k = 0.239940
         3         2         1        32     9        0.000000        0.915239         3    ;  uncertainty k = 0.078408
         3         2         1        32     9      180.000000        0.282524         4    ;  uncertainty k = 0.080168
         3         2         1        33     9        0.000000        0.751235         1    ;  uncertainty k = 0.413219
         3         2         1        33     9      180.000000       -1.520617         2    ;  uncertainty k = 0.239940
         3         2         1        33     9        0.000000        0.915239         3    ;  uncertainty k = 0.078408
         3         2         1        33     9      180.000000        0.282524         4    ;  uncertainty k = 0.080168
         3         2         1        34     9        0.000000        0.751235         1    ;  uncertainty k = 0.413219
         3         2         1        34     9      180.000000       -1.520617         2    ;  uncertainty k = 0.239940
         3         2         1        34     9        0.000000        0.915239         3    ;  uncertainty k = 0.078408
         3         2         1        34     9      180.000000        0.282524         4    ;  uncertainty k = 0.080168
         3         4         5         6     9        0.000000       -0.255485         1    ;  uncertainty k = 0.745723
         3         4         5         6     9      180.000000       15.151071         2    ;  uncertainty k = 0.457279
         3         4         5         6     9        0.000000        1.400092         3    ;  uncertainty k = 0.421767
         3         4         5         6     9      180.000000        1.546337         4    ;  uncertainty k = 0.252430
         3        26        25         6     9        0.000000       -0.296350         1    ;  uncertainty k = 0.183802
         3        26        25         6     9      180.000000        8.936406         2    ;  uncertainty k = 0.752386
         3        26        25         6     9        0.000000        0.208363         3    ;  uncertainty k = 0.146857
         3        26        25         6     9      180.000000        1.263178         4    ;  uncertainty k = 0.306166
         3        26        25        27     9        0.000000        0.331027         1    ;  uncertainty k = 0.248343
         3        26        25        27     9      180.000000       10.832637         2    ;  uncertainty k = 0.206480
         3        26        25        27     9        0.000000        1.003619         3    ;  uncertainty k = 0.314044
         3        26        25        27     9      180.000000        1.598780         4    ;  uncertainty k = 0.204674
         4         3        26        25     9        0.000000        0.103814         1    ;  uncertainty k = 0.710890
         4         3        26        25     9      180.000000        8.100210         2    ;  uncertainty k = 0.616970
         4         3        26        25     9        0.000000        0.182626         3    ;  uncertainty k = 0.449793
         4         3        26        25     9      180.000000        1.290857         4    ;  uncertainty k = 0.335543
         4         3        26        53     9        0.000000       -0.007932         1    ;  uncertainty k = 0.432956
         4         3        26        53     9      180.000000        5.581577         2    ;  uncertainty k = 0.635195
         4         3        26        53     9        0.000000        1.253215         3    ;  uncertainty k = 0.161190
         4         3        26        53     9      180.000000        1.535877         4    ;  uncertainty k = 0.177014
         4         5         6         7     9        0.000000       -0.279681         1    ;  uncertainty k = 1.708664
         4         5         6         7     9      180.000000       13.329791         2    ;  uncertainty k = 0.958372
         4         5         6         7     9        0.000000        2.368460         3    ;  uncertainty k = 0.359532
         4         5         6         7     9      180.000000        1.870043         4    ;  uncertainty k = 0.520948
         4         5         6        25     9        0.000000       -0.134068         1    ;  uncertainty k = 1.079853
         4         5         6        25     9      180.000000       12.080164         2    ;  uncertainty k = 0.701845
         4         5         6        25     9        0.000000        1.531369         3    ;  uncertainty k = 0.485381
         4         5         6        25     9      180.000000        1.575598         4    ;  uncertainty k = 0.364837
         5         4         3        26     9        0.000000       -0.348135         1    ;  uncertainty k = 0.180059
         5         4         3        26     9      180.000000        8.841548         2    ;  uncertainty k = 0.696801
         5         4         3        26     9        0.000000       -0.166756         3    ;  uncertainty k = 0.420973
         5         4         3        26     9      180.000000        1.224473         4    ;  uncertainty k = 0.313691
         5         6         7         8     9        0.000000       -5.395031         1    ;  uncertainty k = 1.204575
         5         6         7         8     9      180.000000        3.778934         2    ;  uncertainty k = 0.287834
         5         6         7         8     9        0.000000       -0.102344         3    ;  uncertainty k = 0.376382
         5         6         7         8     9      180.000000        0.276842         4    ;  uncertainty k = 0.094665
         5         6         7         9     9        0.000000        3.510884         1    ;  uncertainty k = 1.452945
         5         6         7         9     9      180.000000        4.832908         2    ;  uncertainty k = 0.456358
         5         6         7         9     9        0.000000        0.700525         3    ;  uncertainty k = 0.488406
         5         6         7         9     9      180.000000        0.203821         4    ;  uncertainty k = 0.088732
         5         6        25        26     9        0.000000       -0.258319         1    ;  uncertainty k = 0.402578
         5         6        25        26     9      180.000000        6.625474         2    ;  uncertainty k = 0.373124
         5         6        25        26     9        0.000000        0.131975         3    ;  uncertainty k = 0.496263
         5         6        25        26     9      180.000000        1.423538         4    ;  uncertainty k = 0.238976
         5         6        25        27     9        0.000000        0.301621         1    ;  uncertainty k = 0.238111
         5         6        25        27     9      180.000000        8.773530         2    ;  uncertainty k = 0.921950
         5         6        25        27     9        0.000000        0.965440         3    ;  uncertainty k = 0.281941
         5         6        25        27     9      180.000000        1.653597         4    ;  uncertainty k = 0.239435
         6         5         4        35     9        0.000000       -0.378025         1    ;  uncertainty k = 1.157713
         6         5         4        35     9      180.000000       15.423031         2    ;  uncertainty k = 0.309751
         6         5         4        35     9        0.000000        2.415745         3    ;  uncertainty k = 0.583333
         6         5         4        35     9      180.000000        1.530725         4    ;  uncertainty k = 0.556020
         6         7         9        10     9        0.000000        2.798514         1    ;  uncertainty k = 0.536856
         6         7         9        10     9      180.000000        8.752627         2    ;  uncertainty k = 0.343266
         6         7         9        10     9        0.000000        1.589399         3    ;  uncertainty k = 0.213277
         6         7         9        10     9      180.000000       -0.147125         4    ;  uncertainty k = 0.172483
         6         7         9        16     9        0.000000        2.798514         1    ;  uncertainty k = 0.536860
         6         7         9        16     9      180.000000        8.752628         2    ;  uncertainty k = 0.343267
         6         7         9        16     9        0.000000        1.589400         3    ;  uncertainty k = 0.213277
         6         7         9        16     9      180.000000       -0.147125         4    ;  uncertainty k = 0.172484
         6        25        26        53     9        0.000000        0.246739         1    ;  uncertainty k = 0.592126
         6        25        26        53     9      180.000000        6.370084         2    ;  uncertainty k = 0.322571
         6        25        26        53     9        0.000000        1.038568         3    ;  uncertainty k = 0.247383
         6        25        26        53     9      180.000000        1.578132         4    ;  uncertainty k = 0.231395
         6        25        27        28     9        0.000000       -0.449891         1    ;  uncertainty k = 2.000920
         6        25        27        28     9      180.000000        4.566465         2    ;  uncertainty k = 0.212598
         6        25        27        28     9        0.000000        0.445463         3    ;  uncertainty k = 0.277676
         6        25        27        28     9      180.000000        0.045586         4    ;  uncertainty k = 0.161749
         6        25        27        31     9        0.000000       -0.449891         1    ;  uncertainty k = 2.000920
         6        25        27        31     9      180.000000        4.566465         2    ;  uncertainty k = 0.212598
         6        25        27        31     9        0.000000        0.445463         3    ;  uncertainty k = 0.277676
         6        25        27        31     9      180.000000        0.045586         4    ;  uncertainty k = 0.161749
         7         6        25        26     9        0.000000        0.279083         1    ;  uncertainty k = 0.597242
         7         6        25        26     9      180.000000        5.326479         2    ;  uncertainty k = 0.792687
         7         6        25        26     9        0.000000        0.955630         3    ;  uncertainty k = 0.241934
         7         6        25        26     9      180.000000        1.588586         4    ;  uncertainty k = 0.235613
         7         6        25        27     9        0.000000       -0.474930         1    ;  uncertainty k = 1.421349
         7         6        25        27     9      180.000000        8.539815         2    ;  uncertainty k = 0.622622
         7         6        25        27     9        0.000000        1.171993         3    ;  uncertainty k = 0.466573
         7         6        25        27     9      180.000000        1.253771         4    ;  uncertainty k = 0.418345
         7         9        10        11     9        0.000000       -0.189485         1    ;  uncertainty k = 0.687587
         7         9        10        11     9      180.000000       -0.552353         2    ;  uncertainty k = 0.324262
         7         9        10        11     9        0.000000        0.126431         3    ;  uncertainty k = 0.337049
         7         9        10        11     9      180.000000        0.812611         4    ;  uncertainty k = 0.137240
         7         9        10        36     9        0.000000        1.492026         1    ;  uncertainty k = 0.624171
         7         9        10        36     9      180.000000        0.085992         2    ;  uncertainty k = 0.135849
         7         9        10        36     9        0.000000       -0.074955         3    ;  uncertainty k = 0.058685
         7         9        10        36     9      180.000000        0.296470         4    ;  uncertainty k = 0.076001
         7         9        10        37     9        0.000000        1.492026         1    ;  uncertainty k = 0.624171
         7         9        10        37     9      180.000000        0.085992         2    ;  uncertainty k = 0.135849
         7         9        10        37     9        0.000000       -0.074955         3    ;  uncertainty k = 0.058685
         7         9        10        37     9      180.000000        0.296470         4    ;  uncertainty k = 0.076001
         7         9        16        15     9        0.000000       -0.189486         1    ;  uncertainty k = 0.687586
         7         9        16        15     9      180.000000       -0.552354         2    ;  uncertainty k = 0.324262
         7         9        16        15     9        0.000000        0.126431         3    ;  uncertainty k = 0.337048
         7         9        16        15     9      180.000000        0.812612         4    ;  uncertainty k = 0.137239
         7         9        16        44     9        0.000000        1.492027         1    ;  uncertainty k = 0.624173
         7         9        16        44     9      180.000000        0.085993         2    ;  uncertainty k = 0.135849
         7         9        16        44     9        0.000000       -0.074955         3    ;  uncertainty k = 0.058686
         7         9        16        44     9      180.000000        0.296470         4    ;  uncertainty k = 0.076001
         7         9        16        45     9        0.000000        1.492027         1    ;  uncertainty k = 0.624173
         7         9        16        45     9      180.000000        0.085993         2    ;  uncertainty k = 0.135849
         7         9        16        45     9        0.000000       -0.074955         3    ;  uncertainty k = 0.058686
         7         9        16        45     9      180.000000        0.296470         4    ;  uncertainty k = 0.076001
         8         7         6        25     9        0.000000       -3.661447         1    ;  uncertainty k = 2.239299
         8         7         6        25     9      180.000000        3.561793         2    ;  uncertainty k = 0.521942
         8         7         6        25     9        0.000000        0.347674         3    ;  uncertainty k = 0.592719
         8         7         6        25     9      180.000000        0.455776         4    ;  uncertainty k = 0.177339
         8         7         9        10     9        0.000000        5.755088         1    ;  uncertainty k = 0.677526
         8         7         9        10     9      180.000000       16.915067         2    ;  uncertainty k = 0.198734
         8         7         9        10     9        0.000000        0.133793         3    ;  uncertainty k = 0.203282
         8         7         9        10     9      180.000000       -1.061625         4    ;  uncertainty k = 0.147293
         8         7         9        16     9        0.000000        5.755088         1    ;  uncertainty k = 0.677526
         8         7         9        16     9      180.000000       16.915063         2    ;  uncertainty k = 0.198734
         8         7         9        16     9        0.000000        0.133794         3    ;  uncertainty k = 0.203282
         8         7         9        16     9      180.000000       -1.061624         4    ;  uncertainty k = 0.147293
         9         7         6        25     9        0.000000        4.070385         1    ;  uncertainty k = 0.413095
         9         7         6        25     9      180.000000        4.658379         2    ;  uncertainty k = 0.436896
         9         7         6        25     9        0.000000        0.189733         3    ;  uncertainty k = 0.388641
         9         7         6        25     9      180.000000        0.317630         4    ;  uncertainty k = 0.223271
         9        10        11        12     9        0.000000       -2.784726         1    ;  uncertainty k = 1.073006
         9        10        11        12     9      180.000000        0.032543         2    ;  uncertainty k = 0.708328
         9        10        11        12     9        0.000000        1.618446         3    ;  uncertainty k = 0.213023
         9        10        11        12     9      180.000000       -0.200444         4    ;  uncertainty k = 0.095435
         9        10        11        15     9        0.000000       -0.649075         1    ;  uncertainty k = 0.767822
         9        10        11        15     9      180.000000        6.057220         2    ;  uncertainty k = 1.008609
         9        10        11        15     9        0.000000        0.393252         3    ;  uncertainty k = 0.309544
         9        10        11        15     9      180.000000       -1.124878         4    ;  uncertainty k = 0.148352
         9        10        11        38     9        0.000000        0.155292         1    ;  uncertainty k = 0.670576
         9        10        11        38     9      180.000000        0.822404         2    ;  uncertainty k = 0.397432
         9        10        11        38     9        0.000000        1.059757         3    ;  uncertainty k = 0.186849
         9        10        11        38     9      180.000000       -0.061287         4    ;  uncertainty k = 0.099806
         9        16        15        11     9        0.000000       -0.649079         1    ;  uncertainty k = 0.767820
         9        16        15        11     9      180.000000        6.057222         2    ;  uncertainty k = 1.008608
         9        16        15        11     9        0.000000        0.393251         3    ;  uncertainty k = 0.309544
         9        16        15        11     9      180.000000       -1.124879         4    ;  uncertainty k = 0.148352
         9        16        15        14     9        0.000000       -2.784724         1    ;  uncertainty k = 1.073007
         9        16        15        14     9      180.000000        0.032544         2    ;  uncertainty k = 0.708329
         9        16        15        14     9        0.000000        1.618446         3    ;  uncertainty k = 0.213023
         9        16        15        14     9      180.000000       -0.200443         4    ;  uncertainty k = 0.095435
         9        16        15        43     9        0.000000        0.155294         1    ;  uncertainty k = 0.670575
         9        16        15        43     9      180.000000        0.822404         2    ;  uncertainty k = 0.397430
         9        16        15        43     9        0.000000        1.059757         3    ;  uncertainty k = 0.186849
         9        16        15        43     9      180.000000       -0.061287         4    ;  uncertainty k = 0.099806
        10         9        16        15     9        0.000000       -0.534052         1    ;  uncertainty k = 0.966634
        10         9        16        15     9      180.000000        0.253072         2    ;  uncertainty k = 0.697421
        10         9        16        15     9        0.000000        0.818182         3    ;  uncertainty k = 0.177554
        10         9        16        15     9      180.000000        0.150911         4    ;  uncertainty k = 0.243821
        10         9        16        44     9        0.000000       -1.977152         1    ;  uncertainty k = 0.584089
        10         9        16        44     9      180.000000        1.226588         2    ;  uncertainty k = 0.468506
        10         9        16        44     9        0.000000        1.303704         3    ;  uncertainty k = 0.156629
        10         9        16        44     9      180.000000        0.305932         4    ;  uncertainty k = 0.122413
        10         9        16        45     9        0.000000       -1.977152         1    ;  uncertainty k = 0.584089
        10         9        16        45     9      180.000000        1.226588         2    ;  uncertainty k = 0.468506
        10         9        16        45     9        0.000000        1.303704         3    ;  uncertainty k = 0.156629
        10         9        16        45     9      180.000000        0.305932         4    ;  uncertainty k = 0.122413
        10        11        12        13     9        0.000000       -1.910127         1    ;  uncertainty k = 1.241858
        10        11        12        13     9      180.000000        1.001651         2    ;  uncertainty k = 0.853964
        10        11        12        13     9        0.000000        1.656292         3    ;  uncertainty k = 0.381213
        10        11        12        13     9      180.000000       -0.171903         4    ;  uncertainty k = 0.234611
        10        11        12        39     9        0.000000       -0.690368         1    ;  uncertainty k = 0.230726
        10        11        12        39     9      180.000000       -0.385889         2    ;  uncertainty k = 0.260442
        10        11        12        39     9        0.000000        0.564060         3    ;  uncertainty k = 0.183827
        10        11        12        39     9      180.000000       -0.078901         4    ;  uncertainty k = 0.096166
        10        11        12        40     9        0.000000       -0.690368         1    ;  uncertainty k = 0.230726
        10        11        12        40     9      180.000000       -0.385889         2    ;  uncertainty k = 0.260442
        10        11        12        40     9        0.000000        0.564060         3    ;  uncertainty k = 0.183827
        10        11        12        40     9      180.000000       -0.078901         4    ;  uncertainty k = 0.096166
        10        11        15        14     9        0.000000       -3.903984         1    ;  uncertainty k = 0.857353
        10        11        15        14     9      180.000000        0.983349         2    ;  uncertainty k = 1.000554
        10        11        15        14     9        0.000000        1.196959         3    ;  uncertainty k = 0.571496
        10        11        15        14     9      180.000000       -0.414129         4    ;  uncertainty k = 0.332479
        10        11        15        16     9        0.000000       -3.811860         1    ;  uncertainty k = 0.675791
        10        11        15        16     9      180.000000        0.929175         2    ;  uncertainty k = 0.941968
        10        11        15        16     9        0.000000        1.194017         3    ;  uncertainty k = 0.480481
        10        11        15        16     9      180.000000       -0.407459         4    ;  uncertainty k = 0.338641
        10        11        15        43     9        0.000000       -1.316016         1    ;  uncertainty k = 0.563251
        10        11        15        43     9      180.000000        0.589823         2    ;  uncertainty k = 0.361595
        10        11        15        43     9        0.000000        1.032739         3    ;  uncertainty k = 0.238984
        10        11        15        43     9      180.000000        0.080667         4    ;  uncertainty k = 0.058160
        11        10         9        16     9        0.000000       -0.534053         1    ;  uncertainty k = 0.966632
        11        10         9        16     9      180.000000        0.253073         2    ;  uncertainty k = 0.697421
        11        10         9        16     9        0.000000        0.818182         3    ;  uncertainty k = 0.177554
        11        10         9        16     9      180.000000        0.150911         4    ;  uncertainty k = 0.243822
        11        12        13        14     9        0.000000        0.409930         1    ;  uncertainty k = 1.033845
        11        12        13        14     9      180.000000        1.423324         2    ;  uncertainty k = 1.181229
        11        12        13        14     9        0.000000        0.860226         3    ;  uncertainty k = 0.332034
        11        12        13        14     9      180.000000        0.010764         4    ;  uncertainty k = 0.168708
        11        12        13        17     9        0.000000       -5.472949         1    ;  uncertainty k = 1.903108
        11        12        13        17     9      180.000000        0.716174         2    ;  uncertainty k = 0.687897
        11        12        13        17     9        0.000000        0.811634         3    ;  uncertainty k = 0.285402
        11        12        13        17     9      180.000000        0.315929         4    ;  uncertainty k = 0.127583
        11        15        14        13     9        0.000000       -0.248943         1    ;  uncertainty k = 1.669287
        11        15        14        13     9      180.000000        6.161828         2    ;  uncertainty k = 1.110762
        11        15        14        13     9        0.000000        0.670927         3    ;  uncertainty k = 0.347091
        11        15        14        13     9      180.000000       -1.488831         4    ;  uncertainty k = 0.506458
        11        15        14        41     9        0.000000        0.646623         1    ;  uncertainty k = 0.517783
        11        15        14        41     9      180.000000       -1.099688         2    ;  uncertainty k = 0.743823
        11        15        14        41     9        0.000000       -0.334778         3    ;  uncertainty k = 0.213643
        11        15        14        41     9      180.000000       -0.018734         4    ;  uncertainty k = 0.206091
        11        15        14        42     9        0.000000        0.646623         1    ;  uncertainty k = 0.517783
        11        15        14        42     9      180.000000       -1.099688         2    ;  uncertainty k = 0.743823
        11        15        14        42     9        0.000000       -0.334778         3    ;  uncertainty k = 0.213643
        11        15        14        42     9      180.000000       -0.018734         4    ;  uncertainty k = 0.206091
        11        15        16        44     9        0.000000        0.466428         1    ;  uncertainty k = 0.514718
        11        15        16        44     9      180.000000       -1.085922         2    ;  uncertainty k = 0.663111
        11        15        16        44     9        0.000000       -0.256973         3    ;  uncertainty k = 0.175595
        11        15        16        44     9      180.000000       -0.013323         4    ;  uncertainty k = 0.178263
        11        15        16        45     9        0.000000        0.466428         1    ;  uncertainty k = 0.514718
        11        15        16        45     9      180.000000       -1.085922         2    ;  uncertainty k = 0.663111
        11        15        16        45     9        0.000000       -0.256973         3    ;  uncertainty k = 0.175595
        11        15        16        45     9      180.000000       -0.013323         4    ;  uncertainty k = 0.178263
        12        11        10        36     9        0.000000       -0.501445         1    ;  uncertainty k = 0.128631
        12        11        10        36     9      180.000000       -0.403018         2    ;  uncertainty k = 0.190923
        12        11        10        36     9        0.000000        0.569585         3    ;  uncertainty k = 0.186918
        12        11        10        36     9      180.000000       -0.073502         4    ;  uncertainty k = 0.061663
        12        11        10        37     9        0.000000       -0.501445         1    ;  uncertainty k = 0.128631
        12        11        10        37     9      180.000000       -0.403018         2    ;  uncertainty k = 0.190923
        12        11        10        37     9        0.000000        0.569585         3    ;  uncertainty k = 0.186918
        12        11        10        37     9      180.000000       -0.073502         4    ;  uncertainty k = 0.061663
        12        11        15        14     9        0.000000       -3.896618         1    ;  uncertainty k = 1.087276
        12        11        15        14     9      180.000000        1.035026         2    ;  uncertainty k = 1.026287
        12        11        15        14     9        0.000000        1.207838         3    ;  uncertainty k = 0.671623
        12        11        15        14     9      180.000000       -0.436931         4    ;  uncertainty k = 0.343365
        12        11        15        16     9        0.000000       -3.903982         1    ;  uncertainty k = 0.857354
        12        11        15        16     9      180.000000        0.983349         2    ;  uncertainty k = 1.000553
        12        11        15        16     9        0.000000        1.196959         3    ;  uncertainty k = 0.571496
        12        11        15        16     9      180.000000       -0.414129         4    ;  uncertainty k = 0.332478
        12        11        15        43     9        0.000000       -1.223112         1    ;  uncertainty k = 0.611378
        12        11        15        43     9      180.000000        0.489633         2    ;  uncertainty k = 0.414978
        12        11        15        43     9        0.000000        0.997353         3    ;  uncertainty k = 0.241670
        12        11        15        43     9      180.000000        0.066778         4    ;  uncertainty k = 0.087125
        12        13        14        15     9        0.000000        0.409933         1    ;  uncertainty k = 1.033845
        12        13        14        15     9      180.000000        1.423324         2    ;  uncertainty k = 1.181231
        12        13        14        15     9        0.000000        0.860226         3    ;  uncertainty k = 0.332034
        12        13        14        15     9      180.000000        0.010764         4    ;  uncertainty k = 0.168707
        12        13        14        41     9        0.000000       -2.106812         1    ;  uncertainty k = 0.722680
        12        13        14        41     9      180.000000        1.271153         2    ;  uncertainty k = 0.391419
        12        13        14        41     9        0.000000        1.144989         3    ;  uncertainty k = 0.081015
        12        13        14        41     9      180.000000        0.249969         4    ;  uncertainty k = 0.124009
        12        13        14        42     9        0.000000       -2.106812         1    ;  uncertainty k = 0.722680
        12        13        14        42     9      180.000000        1.271153         2    ;  uncertainty k = 0.391419
        12        13        14        42     9        0.000000        1.144989         3    ;  uncertainty k = 0.081015
        12        13        14        42     9      180.000000        0.249969         4    ;  uncertainty k = 0.124009
        12        13        17        18     9        0.000000        5.106260         1    ;  uncertainty k = 0.513054
        12        13        17        18     9      180.000000       11.756746         2    ;  uncertainty k = 0.134927
        12        13        17        18     9        0.000000        0.174634         3    ;  uncertainty k = 0.195419
        12        13        17        18     9      180.000000       -0.347384         4    ;  uncertainty k = 0.051935
        12        13        17        24     9        0.000000        5.106263         1    ;  uncertainty k = 0.513054
        12        13        17        24     9      180.000000       11.756747         2    ;  uncertainty k = 0.134927
        12        13        17        24     9        0.000000        0.174634         3    ;  uncertainty k = 0.195419
        12        13        17        24     9      180.000000       -0.347384         4    ;  uncertainty k = 0.051935
        13        12        11        15     9        0.000000       -0.248942         1    ;  uncertainty k = 1.669285
        13        12        11        15     9      180.000000        6.161827         2    ;  uncertainty k = 1.110764
        13        12        11        15     9        0.000000        0.670927         3    ;  uncertainty k = 0.347091
        13        12        11        15     9      180.000000       -1.488831         4    ;  uncertainty k = 0.506459
        13        12        11        38     9        0.000000        0.565926         1    ;  uncertainty k = 0.856650
        13        12        11        38     9      180.000000        1.324273         2    ;  uncertainty k = 0.513613
        13        12        11        38     9        0.000000        1.171168         3    ;  uncertainty k = 0.217599
        13        12        11        38     9      180.000000       -0.072433         4    ;  uncertainty k = 0.184790
        13        14        15        16     9        0.000000       -1.910127         1    ;  uncertainty k = 1.241856
        13        14        15        16     9      180.000000        1.001652         2    ;  uncertainty k = 0.853965
        13        14        15        16     9        0.000000        1.656293         3    ;  uncertainty k = 0.381212
        13        14        15        16     9      180.000000       -0.171904         4    ;  uncertainty k = 0.234611
        13        14        15        43     9        0.000000        0.565926         1    ;  uncertainty k = 0.856649
        13        14        15        43     9      180.000000        1.324274         2    ;  uncertainty k = 0.513615
        13        14        15        43     9        0.000000        1.171169         3    ;  uncertainty k = 0.217600
        13        14        15        43     9      180.000000       -0.072433         4    ;  uncertainty k = 0.184790
        13        17        18        19     9        0.000000        0.521918         1    ;  uncertainty k = 0.979110
        13        17        18        19     9      180.000000       10.533270         2    ;  uncertainty k = 0.414227
        13        17        18        19     9        0.000000        1.726080         3    ;  uncertainty k = 0.365718
        13        17        18        19     9      180.000000        0.994637         4    ;  uncertainty k = 0.141069
        13        17        24        22     9        0.000000        0.521916         1    ;  uncertainty k = 0.979112
        13        17        24        22     9      180.000000       10.533272         2    ;  uncertainty k = 0.414227
        13        17        24        22     9        0.000000        1.726080         3    ;  uncertainty k = 0.365718
        13        17        24        22     9      180.000000        0.994636         4    ;  uncertainty k = 0.141069
        14        13        12        39     9        0.000000       -2.106812         1    ;  uncertainty k = 0.722683
        14        13        12        39     9      180.000000        1.271152         2    ;  uncertainty k = 0.391418
        14        13        12        39     9        0.000000        1.144990         3    ;  uncertainty k = 0.081015
        14        13        12        39     9      180.000000        0.249969         4    ;  uncertainty k = 0.124009
        14        13        12        40     9        0.000000       -2.106812         1    ;  uncertainty k = 0.722683
        14        13        12        40     9      180.000000        1.271152         2    ;  uncertainty k = 0.391418
        14        13        12        40     9        0.000000        1.144990         3    ;  uncertainty k = 0.081015
        14        13        12        40     9      180.000000        0.249969         4    ;  uncertainty k = 0.124009
        14        13        17        18     9        0.000000        5.106260         1    ;  uncertainty k = 0.513054
        14        13        17        18     9      180.000000       11.756746         2    ;  uncertainty k = 0.134928
        14        13        17        18     9        0.000000        0.174633         3    ;  uncertainty k = 0.195420
        14        13        17        18     9      180.000000       -0.347384         4    ;  uncertainty k = 0.051935
        14        13        17        24     9        0.000000        5.106262         1    ;  uncertainty k = 0.513055
        14        13        17        24     9      180.000000       11.756747         2    ;  uncertainty k = 0.134927
        14        13        17        24     9        0.000000        0.174633         3    ;  uncertainty k = 0.195419
        14        13        17        24     9      180.000000       -0.347384         4    ;  uncertainty k = 0.051935
        14        15        11        38     9        0.000000       -1.223111         1    ;  uncertainty k = 0.611378
        14        15        11        38     9      180.000000        0.489636         2    ;  uncertainty k = 0.414976
        14        15        11        38     9        0.000000        0.997354         3    ;  uncertainty k = 0.241670
        14        15        11        38     9      180.000000        0.066778         4    ;  uncertainty k = 0.087125
        14        15        16        44     9        0.000000       -0.501447         1    ;  uncertainty k = 0.128631
        14        15        16        44     9      180.000000       -0.403017         2    ;  uncertainty k = 0.190923
        14        15        16        44     9        0.000000        0.569586         3    ;  uncertainty k = 0.186919
        14        15        16        44     9      180.000000       -0.073502         4    ;  uncertainty k = 0.061663
        14        15        16        45     9        0.000000       -0.501447         1    ;  uncertainty k = 0.128631
        14        15        16        45     9      180.000000       -0.403017         2    ;  uncertainty k = 0.190923
        14        15        16        45     9        0.000000        0.569586         3    ;  uncertainty k = 0.186919
        14        15        16        45     9      180.000000       -0.073502         4    ;  uncertainty k = 0.061663
        15        11        10        36     9        0.000000        0.466429         1    ;  uncertainty k = 0.514718
        15        11        10        36     9      180.000000       -1.085923         2    ;  uncertainty k = 0.663112
        15        11        10        36     9        0.000000       -0.256974         3    ;  uncertainty k = 0.175595
        15        11        10        36     9      180.000000       -0.013323         4    ;  uncertainty k = 0.178264
        15        11        10        37     9        0.000000        0.466429         1    ;  uncertainty k = 0.514718
        15        11        10        37     9      180.000000       -1.085923         2    ;  uncertainty k = 0.663112
        15        11        10        37     9        0.000000       -0.256974         3    ;  uncertainty k = 0.175595
        15        11        10        37     9      180.000000       -0.013323         4    ;  uncertainty k = 0.178264
        15        11        12        39     9        0.000000        0.646623         1    ;  uncertainty k = 0.517782
        15        11        12        39     9      180.000000       -1.099688         2    ;  uncertainty k = 0.743824
        15        11        12        39     9        0.000000       -0.334778         3    ;  uncertainty k = 0.213644
        15        11        12        39     9      180.000000       -0.018734         4    ;  uncertainty k = 0.206091
        15        11        12        40     9        0.000000        0.646623         1    ;  uncertainty k = 0.517782
        15        11        12        40     9      180.000000       -1.099688         2    ;  uncertainty k = 0.743824
        15        11        12        40     9        0.000000       -0.334778         3    ;  uncertainty k = 0.213644
        15        11        12        40     9      180.000000       -0.018734         4    ;  uncertainty k = 0.206091
        15        14        13        17     9        0.000000       -5.472951         1    ;  uncertainty k = 1.903105
        15        14        13        17     9      180.000000        0.716173         2    ;  uncertainty k = 0.687896
        15        14        13        17     9        0.000000        0.811634         3    ;  uncertainty k = 0.285402
        15        14        13        17     9      180.000000        0.315929         4    ;  uncertainty k = 0.127584
        16         9        10        36     9        0.000000       -1.977152         1    ;  uncertainty k = 0.584090
        16         9        10        36     9      180.000000        1.226589         2    ;  uncertainty k = 0.468505
        16         9        10        36     9        0.000000        1.303704         3    ;  uncertainty k = 0.156629
        16         9        10        36     9      180.000000        0.305932         4    ;  uncertainty k = 0.122413
        16         9        10        37     9        0.000000       -1.977152         1    ;  uncertainty k = 0.584090
        16         9        10        37     9      180.000000        1.226589         2    ;  uncertainty k = 0.468505
        16         9        10        37     9        0.000000        1.303704         3    ;  uncertainty k = 0.156629
        16         9        10        37     9      180.000000        0.305932         4    ;  uncertainty k = 0.122413
        16        15        11        38     9        0.000000       -1.316016         1    ;  uncertainty k = 0.563251
        16        15        11        38     9      180.000000        0.589825         2    ;  uncertainty k = 0.361594
        16        15        11        38     9        0.000000        1.032739         3    ;  uncertainty k = 0.238984
        16        15        11        38     9      180.000000        0.080667         4    ;  uncertainty k = 0.058160
        16        15        14        41     9        0.000000       -0.690368         1    ;  uncertainty k = 0.230726
        16        15        14        41     9      180.000000       -0.385889         2    ;  uncertainty k = 0.260443
        16        15        14        41     9        0.000000        0.564060         3    ;  uncertainty k = 0.183829
        16        15        14        41     9      180.000000       -0.078902         4    ;  uncertainty k = 0.096166
        16        15        14        42     9        0.000000       -0.690368         1    ;  uncertainty k = 0.230726
        16        15        14        42     9      180.000000       -0.385889         2    ;  uncertainty k = 0.260443
        16        15        14        42     9        0.000000        0.564060         3    ;  uncertainty k = 0.183829
        16        15        14        42     9      180.000000       -0.078902         4    ;  uncertainty k = 0.096166
        17        13        12        39     9        0.000000       -0.203573         1    ;  uncertainty k = 0.772782
        17        13        12        39     9      180.000000        1.020940         2    ;  uncertainty k = 0.423812
        17        13        12        39     9        0.000000        0.580937         3    ;  uncertainty k = 0.130796
        17        13        12        39     9      180.000000        0.377931         4    ;  uncertainty k = 0.101923
        17        13        12        40     9        0.000000       -0.203573         1    ;  uncertainty k = 0.772782
        17        13        12        40     9      180.000000        1.020940         2    ;  uncertainty k = 0.423812
        17        13        12        40     9        0.000000        0.580937         3    ;  uncertainty k = 0.130796
        17        13        12        40     9      180.000000        0.377931         4    ;  uncertainty k = 0.101923
        17        13        14        41     9        0.000000       -0.203571         1    ;  uncertainty k = 0.772780
        17        13        14        41     9      180.000000        1.020939         2    ;  uncertainty k = 0.423812
        17        13        14        41     9        0.000000        0.580937         3    ;  uncertainty k = 0.130796
        17        13        14        41     9      180.000000        0.377931         4    ;  uncertainty k = 0.101923
        17        13        14        42     9        0.000000       -0.203571         1    ;  uncertainty k = 0.772780
        17        13        14        42     9      180.000000        1.020939         2    ;  uncertainty k = 0.423812
        17        13        14        42     9        0.000000        0.580937         3    ;  uncertainty k = 0.130796
        17        13        14        42     9      180.000000        0.377931         4    ;  uncertainty k = 0.101923
        17        18        19        20     9        0.000000        0.048316         1    ;  uncertainty k = 0.979764
        17        18        19        20     9      180.000000       15.003732         2    ;  uncertainty k = 0.544477
        17        18        19        20     9        0.000000        2.381190         3    ;  uncertainty k = 0.363195
        17        18        19        20     9      180.000000        1.660639         4    ;  uncertainty k = 0.462768
        17        18        19        21     9        0.000000       -0.347752         1    ;  uncertainty k = 0.474198
        17        18        19        21     9      180.000000       15.075410         2    ;  uncertainty k = 0.177114
        17        18        19        21     9        0.000000        0.171723         3    ;  uncertainty k = 0.438996
        17        18        19        21     9      180.000000        1.128465         4    ;  uncertainty k = 0.364424
        17        24        22        21     9        0.000000       -0.347752         1    ;  uncertainty k = 0.474196
        17        24        22        21     9      180.000000       15.075408         2    ;  uncertainty k = 0.177114
        17        24        22        21     9        0.000000        0.171722         3    ;  uncertainty k = 0.438995
        17        24        22        21     9      180.000000        1.128465         4    ;  uncertainty k = 0.364424
        17        24        22        23     9        0.000000        0.048316         1    ;  uncertainty k = 0.979765
        17        24        22        23     9      180.000000       15.003732         2    ;  uncertainty k = 0.544476
        17        24        22        23     9        0.000000        2.381190         3    ;  uncertainty k = 0.363195
        17        24        22        23     9      180.000000        1.660638         4    ;  uncertainty k = 0.462768
        18        17        24        22     9        0.000000       -0.609061         1    ;  uncertainty k = 0.758200
        18        17        24        22     9      180.000000        8.692612         2    ;  uncertainty k = 0.791820
        18        17        24        22     9        0.000000        0.670287         3    ;  uncertainty k = 0.621160
        18        17        24        22     9      180.000000        0.786580         4    ;  uncertainty k = 0.112572
        18        19        20        46     9        0.000000        0.603363         1    ;  uncertainty k = 0.264623
        18        19        20        46     9      180.000000        3.634558         2    ;  uncertainty k = 0.065841
        18        19        20        46     9        0.000000        0.492173         3    ;  uncertainty k = 0.029987
        18        19        20        46     9      180.000000        0.275109         4    ;  uncertainty k = 0.045162
        18        19        20        47     9        0.000000        0.603363         1    ;  uncertainty k = 0.264623
        18        19        20        47     9      180.000000        3.634558         2    ;  uncertainty k = 0.065841
        18        19        20        47     9        0.000000        0.492173         3    ;  uncertainty k = 0.029987
        18        19        20        47     9      180.000000        0.275109         4    ;  uncertainty k = 0.045162
        18        19        20        48     9        0.000000        0.603363         1    ;  uncertainty k = 0.264623
        18        19        20        48     9      180.000000        3.634558         2    ;  uncertainty k = 0.065841
        18        19        20        48     9        0.000000        0.492173         3    ;  uncertainty k = 0.029987
        18        19        20        48     9      180.000000        0.275109         4    ;  uncertainty k = 0.045162
        18        19        21        22     9        0.000000       -0.216009         1    ;  uncertainty k = 0.356935
        18        19        21        22     9      180.000000       11.910554         2    ;  uncertainty k = 0.424708
        18        19        21        22     9        0.000000       -1.407438         3    ;  uncertainty k = 0.758939
        18        19        21        22     9      180.000000        0.980955         4    ;  uncertainty k = 0.077686
        18        19        21        49     9        0.000000        0.224609         1    ;  uncertainty k = 0.474806
        18        19        21        49     9      180.000000        8.441724         2    ;  uncertainty k = 0.328864
        18        19        21        49     9        0.000000        1.108367         3    ;  uncertainty k = 0.321335
        18        19        21        49     9      180.000000        1.600213         4    ;  uncertainty k = 0.093449
        19        18        17        24     9        0.000000       -0.609062         1    ;  uncertainty k = 0.758198
        19        18        17        24     9      180.000000        8.692615         2    ;  uncertainty k = 0.791819
        19        18        17        24     9        0.000000        0.670287         3    ;  uncertainty k = 0.621159
        19        18        17        24     9      180.000000        0.786580         4    ;  uncertainty k = 0.112572
        19        21        22        23     9        0.000000       -0.007202         1    ;  uncertainty k = 0.501718
        19        21        22        23     9      180.000000        7.613772         2    ;  uncertainty k = 0.266338
        19        21        22        23     9        0.000000        0.944105         3    ;  uncertainty k = 0.227995
        19        21        22        23     9      180.000000        1.305658         4    ;  uncertainty k = 0.239337
        19        21        22        24     9        0.000000       -0.216009         1    ;  uncertainty k = 0.356937
        19        21        22        24     9      180.000000       11.910556         2    ;  uncertainty k = 0.424710
        19        21        22        24     9        0.000000       -1.407438         3    ;  uncertainty k = 0.758939
        19        21        22        24     9      180.000000        0.980954         4    ;  uncertainty k = 0.077687
        20        19        21        22     9        0.000000       -0.007201         1    ;  uncertainty k = 0.501715
        20        19        21        22     9      180.000000        7.613773         2    ;  uncertainty k = 0.266339
        20        19        21        22     9        0.000000        0.944105         3    ;  uncertainty k = 0.227996
        20        19        21        22     9      180.000000        1.305657         4    ;  uncertainty k = 0.239337
        20        19        21        49     9        0.000000       -0.261676         1    ;  uncertainty k = 0.315637
        20        19        21        49     9      180.000000        6.874961         2    ;  uncertainty k = 0.342649
        20        19        21        49     9        0.000000        0.656535         3    ;  uncertainty k = 0.284604
        20        19        21        49     9      180.000000        0.765991         4    ;  uncertainty k = 0.276600
        21        19        20        46     9        0.000000       -0.250295         1    ;  uncertainty k = 0.274872
        21        19        20        46     9      180.000000        2.290443         2    ;  uncertainty k = 0.171778
        21        19        20        46     9        0.000000        0.278064         3    ;  uncertainty k = 0.038016
        21        19        20        46     9      180.000000        0.146673         4    ;  uncertainty k = 0.025666
        21        19        20        47     9        0.000000       -0.250295         1    ;  uncertainty k = 0.274872
        21        19        20        47     9      180.000000        2.290443         2    ;  uncertainty k = 0.171778
        21        19        20        47     9        0.000000        0.278064         3    ;  uncertainty k = 0.038016
        21        19        20        47     9      180.000000        0.146673         4    ;  uncertainty k = 0.025666
        21        19        20        48     9        0.000000       -0.250295         1    ;  uncertainty k = 0.274872
        21        19        20        48     9      180.000000        2.290443         2    ;  uncertainty k = 0.171778
        21        19        20        48     9        0.000000        0.278064         3    ;  uncertainty k = 0.038016
        21        19        20        48     9      180.000000        0.146673         4    ;  uncertainty k = 0.025666
        21        22        23        50     9        0.000000       -0.250296         1    ;  uncertainty k = 0.274873
        21        22        23        50     9      180.000000        2.290444         2    ;  uncertainty k = 0.171778
        21        22        23        50     9        0.000000        0.278065         3    ;  uncertainty k = 0.038017
        21        22        23        50     9      180.000000        0.146673         4    ;  uncertainty k = 0.025666
        21        22        23        51     9        0.000000       -0.250296         1    ;  uncertainty k = 0.274873
        21        22        23        51     9      180.000000        2.290444         2    ;  uncertainty k = 0.171778
        21        22        23        51     9        0.000000        0.278065         3    ;  uncertainty k = 0.038017
        21        22        23        51     9      180.000000        0.146673         4    ;  uncertainty k = 0.025666
        21        22        23        52     9        0.000000       -0.250296         1    ;  uncertainty k = 0.274873
        21        22        23        52     9      180.000000        2.290444         2    ;  uncertainty k = 0.171778
        21        22        23        52     9        0.000000        0.278065         3    ;  uncertainty k = 0.038017
        21        22        23        52     9      180.000000        0.146673         4    ;  uncertainty k = 0.025666
        23        22        21        49     9        0.000000       -0.261676         1    ;  uncertainty k = 0.315638
        23        22        21        49     9      180.000000        6.874962         2    ;  uncertainty k = 0.342650
        23        22        21        49     9        0.000000        0.656534         3    ;  uncertainty k = 0.284603
        23        22        21        49     9      180.000000        0.765991         4    ;  uncertainty k = 0.276600
        24        22        21        49     9        0.000000        0.224607         1    ;  uncertainty k = 0.474804
        24        22        21        49     9      180.000000        8.441723         2    ;  uncertainty k = 0.328864
        24        22        21        49     9        0.000000        1.108367         3    ;  uncertainty k = 0.321335
        24        22        21        49     9      180.000000        1.600213         4    ;  uncertainty k = 0.093449
        24        22        23        50     9        0.000000        0.603365         1    ;  uncertainty k = 0.264621
        24        22        23        50     9      180.000000        3.634560         2    ;  uncertainty k = 0.065840
        24        22        23        50     9        0.000000        0.492173         3    ;  uncertainty k = 0.029988
        24        22        23        50     9      180.000000        0.275108         4    ;  uncertainty k = 0.045162
        24        22        23        51     9        0.000000        0.603365         1    ;  uncertainty k = 0.264621
        24        22        23        51     9      180.000000        3.634560         2    ;  uncertainty k = 0.065840
        24        22        23        51     9        0.000000        0.492173         3    ;  uncertainty k = 0.029988
        24        22        23        51     9      180.000000        0.275108         4    ;  uncertainty k = 0.045162
        24        22        23        52     9        0.000000        0.603365         1    ;  uncertainty k = 0.264621
        24        22        23        52     9      180.000000        3.634560         2    ;  uncertainty k = 0.065840
        24        22        23        52     9        0.000000        0.492173         3    ;  uncertainty k = 0.029988
        24        22        23        52     9      180.000000        0.275108         4    ;  uncertainty k = 0.045162
        25        27        28        29     9        0.000000        0.607746         1    ;  uncertainty k = 2.418326
        25        27        28        29     9      180.000000       14.759670         2    ;  uncertainty k = 0.430556
        25        27        28        29     9        0.000000        1.442219         3    ;  uncertainty k = 0.484099
        25        27        28        29     9      180.000000        0.126800         4    ;  uncertainty k = 0.180548
        25        27        31        30     9        0.000000        0.607746         1    ;  uncertainty k = 2.418326
        25        27        31        30     9      180.000000       14.759670         2    ;  uncertainty k = 0.430556
        25        27        31        30     9        0.000000        1.442219         3    ;  uncertainty k = 0.484099
        25        27        31        30     9      180.000000        0.126800         4    ;  uncertainty k = 0.180548
        26         3         4        35     9        0.000000       -0.231960         1    ;  uncertainty k = 0.419967
        26         3         4        35     9      180.000000        4.620387         2    ;  uncertainty k = 1.092184
        26         3         4        35     9        0.000000        1.078082         3    ;  uncertainty k = 0.092255
        26         3         4        35     9      180.000000        1.260917         4    ;  uncertainty k = 0.164379
        26        25        27        28     9        0.000000        1.478999         1    ;  uncertainty k = 0.575959
        26        25        27        28     9      180.000000        4.396799         2    ;  uncertainty k = 0.185394
        26        25        27        28     9        0.000000        0.288885         3    ;  uncertainty k = 0.304504
        26        25        27        28     9      180.000000        0.115241         4    ;  uncertainty k = 0.071640
        26        25        27        31     9        0.000000        1.478999         1    ;  uncertainty k = 0.575959
        26        25        27        31     9      180.000000        4.396799         2    ;  uncertainty k = 0.185394
        26        25        27        31     9        0.000000        0.288885         3    ;  uncertainty k = 0.304504
        26        25        27        31     9      180.000000        0.115241         4    ;  uncertainty k = 0.071640
        27        25        26        53     9        0.000000        0.281978         1    ;  uncertainty k = 0.580798
        27        25        26        53     9      180.000000        8.593525         2    ;  uncertainty k = 0.406566
        27        25        26        53     9        0.000000        0.817170         3    ;  uncertainty k = 0.286927
        27        25        26        53     9      180.000000        1.317459         4    ;  uncertainty k = 0.123745
        27        28        29        30     9        0.000000       -0.041896         1    ;  uncertainty k = 0.469836
        27        28        29        30     9      180.000000       24.399194         2    ;  uncertainty k = 0.367506
        27        28        29        30     9        0.000000       -9.724178         3    ;  uncertainty k = 1.936801
        27        28        29        30     9      180.000000        2.453288         4    ;  uncertainty k = 0.660057
        27        28        29        54     9        0.000000        0.266970         1    ;  uncertainty k = 0.756022
        27        28        29        54     9      180.000000       22.132171         2    ;  uncertainty k = 0.472292
        27        28        29        54     9        0.000000        1.468119         3    ;  uncertainty k = 0.429532
        27        28        29        54     9      180.000000        1.225933         4    ;  uncertainty k = 0.638058
        27        31        30        29     9        0.000000       -0.041896         1    ;  uncertainty k = 0.469836
        27        31        30        29     9      180.000000       24.399194         2    ;  uncertainty k = 0.367506
        27        31        30        29     9        0.000000       -9.724178         3    ;  uncertainty k = 1.936801
        27        31        30        29     9      180.000000        2.453288         4    ;  uncertainty k = 0.660057
        27        31        30        55     9        0.000000        0.266970         1    ;  uncertainty k = 0.756022
        27        31        30        55     9      180.000000       22.132171         2    ;  uncertainty k = 0.472292
        27        31        30        55     9        0.000000        1.468119         3    ;  uncertainty k = 0.429532
        27        31        30        55     9      180.000000        1.225933         4    ;  uncertainty k = 0.638058
        28        27        31        30     9        0.000000       -0.784941         1    ;  uncertainty k = 0.813176
        28        27        31        30     9      180.000000       21.983722         2    ;  uncertainty k = 0.254213
        28        27        31        30     9        0.000000       -8.406146         3    ;  uncertainty k = 1.387175
        28        27        31        30     9      180.000000        1.278540         4    ;  uncertainty k = 0.574943
        28        29        30        31     9        0.000000       -0.476345         1    ;  uncertainty k = 0.946822
        28        29        30        31     9      180.000000       16.667085         2    ;  uncertainty k = 1.318275
        28        29        30        31     9        0.000000      -12.092095         3    ;  uncertainty k = 1.850993
        28        29        30        31     9      180.000000        2.013593         4    ;  uncertainty k = 0.764312
        28        29        30        55     9        0.000000        0.161214         1    ;  uncertainty k = 0.964820
        28        29        30        55     9      180.000000       11.802884         2    ;  uncertainty k = 0.594834
        28        29        30        55     9        0.000000        0.938747         3    ;  uncertainty k = 0.744107
        28        29        30        55     9      180.000000        0.633505         4    ;  uncertainty k = 0.169776
        29        28        27        31     9        0.000000       -0.784941         1    ;  uncertainty k = 0.813176
        29        28        27        31     9      180.000000       21.983722         2    ;  uncertainty k = 0.254213
        29        28        27        31     9        0.000000       -8.406146         3    ;  uncertainty k = 1.387175
        29        28        27        31     9      180.000000        1.278540         4    ;  uncertainty k = 0.574943
        31        30        29        54     9        0.000000        0.161214         1    ;  uncertainty k = 0.964820
        31        30        29        54     9      180.000000       11.802884         2    ;  uncertainty k = 0.594834
        31        30        29        54     9        0.000000        0.938747         3    ;  uncertainty k = 0.744107
        31        30        29        54     9      180.000000        0.633505         4    ;  uncertainty k = 0.169776
        36        10        11        38     9        0.000000        0.418332         1    ;  uncertainty k = 0.292842
        36        10        11        38     9      180.000000       -0.319956         2    ;  uncertainty k = 0.247077
        36        10        11        38     9        0.000000        0.346837         3    ;  uncertainty k = 0.129266
        36        10        11        38     9      180.000000       -0.039168         4    ;  uncertainty k = 0.063842
        37        10        11        38     9        0.000000        0.418332         1    ;  uncertainty k = 0.292842
        37        10        11        38     9      180.000000       -0.319956         2    ;  uncertainty k = 0.247077
        37        10        11        38     9        0.000000        0.346837         3    ;  uncertainty k = 0.129266
        37        10        11        38     9      180.000000       -0.039168         4    ;  uncertainty k = 0.063842
        38        11        12        39     9        0.000000        0.359874         1    ;  uncertainty k = 0.316165
        38        11        12        39     9      180.000000       -0.360044         2    ;  uncertainty k = 0.197281
        38        11        12        39     9        0.000000        0.364903         3    ;  uncertainty k = 0.128583
        38        11        12        39     9      180.000000       -0.036803         4    ;  uncertainty k = 0.081429
        38        11        12        40     9        0.000000        0.359874         1    ;  uncertainty k = 0.316165
        38        11        12        40     9      180.000000       -0.360044         2    ;  uncertainty k = 0.197281
        38        11        12        40     9        0.000000        0.364903         3    ;  uncertainty k = 0.128583
        38        11        12        40     9      180.000000       -0.036803         4    ;  uncertainty k = 0.081429
        38        11        15        43     9        0.000000        3.534565         1    ;  uncertainty k = 1.183407
        38        11        15        43     9      180.000000       -0.219653         2    ;  uncertainty k = 0.641097
        38        11        15        43     9        0.000000        0.578188         3    ;  uncertainty k = 0.579178
        38        11        15        43     9      180.000000        0.212498         4    ;  uncertainty k = 0.291708
        41        14        15        43     9        0.000000        0.359873         1    ;  uncertainty k = 0.316164
        41        14        15        43     9      180.000000       -0.360044         2    ;  uncertainty k = 0.197280
        41        14        15        43     9        0.000000        0.364903         3    ;  uncertainty k = 0.128583
        41        14        15        43     9      180.000000       -0.036803         4    ;  uncertainty k = 0.081430
        42        14        15        43     9        0.000000        0.359873         1    ;  uncertainty k = 0.316164
        42        14        15        43     9      180.000000       -0.360044         2    ;  uncertainty k = 0.197280
        42        14        15        43     9        0.000000        0.364903         3    ;  uncertainty k = 0.128583
        42        14        15        43     9      180.000000       -0.036803         4    ;  uncertainty k = 0.081430
        43        15        16        44     9        0.000000        0.418333         1    ;  uncertainty k = 0.292844
        43        15        16        44     9      180.000000       -0.319955         2    ;  uncertainty k = 0.247076
        43        15        16        44     9        0.000000        0.346837         3    ;  uncertainty k = 0.129266
        43        15        16        44     9      180.000000       -0.039169         4    ;  uncertainty k = 0.063842
        43        15        16        45     9        0.000000        0.418333         1    ;  uncertainty k = 0.292844
        43        15        16        45     9      180.000000       -0.319955         2    ;  uncertainty k = 0.247076
        43        15        16        45     9        0.000000        0.346837         3    ;  uncertainty k = 0.129266
        43        15        16        45     9      180.000000       -0.039169         4    ;  uncertainty k = 0.063842
        54        29        30        55     9        0.000000       -0.942648         1    ;  uncertainty k = 1.117582
        54        29        30        55     9      180.000000        4.272735         2    ;  uncertainty k = 0.760818
        54        29        30        55     9        0.000000        1.314863         3    ;  uncertainty k = 0.353594
        54        29        30        55     9      180.000000        0.150448         4    ;  uncertainty k = 0.159865

[ dihedrals ] ; impropers
;       ai        aj        ak        al funct           phase               k        pn
         3         2         4        26     4      180.000000       19.595454         2    ;  uncertainty k = 0.134029
         3         4        26         2     4      180.000000       19.595454         2    ;  uncertainty k = 0.134029
         3        26         2         4     4      180.000000       19.595454         2    ;  uncertainty k = 0.134029
         4         3         5        35     4      180.000000       10.436545         2    ;  uncertainty k = 0.220941
         4         5        35         3     4      180.000000       10.436545         2    ;  uncertainty k = 0.220941
         4        35         3         5     4      180.000000       10.436545         2    ;  uncertainty k = 0.220941
         6         5         7        25     4      180.000000       17.179635         2    ;  uncertainty k = 0.212557
         6         7        25         5     4      180.000000       17.179635         2    ;  uncertainty k = 0.212557
         6        25         5         7     4      180.000000       17.179635         2    ;  uncertainty k = 0.212557
         7         6         8         9     4      180.000000       48.965678         2    ;  uncertainty k = 0.021658
         7         8         9         6     4      180.000000       48.965678         2    ;  uncertainty k = 0.021658
         7         9         6         8     4      180.000000       48.965678         2    ;  uncertainty k = 0.021658
        13        12        14        17     4      180.000000        0.056060         2    ;  uncertainty k = 0.081765
        13        14        17        12     4      180.000000        0.056060         2    ;  uncertainty k = 0.081765
        13        17        12        14     4      180.000000        0.056060         2    ;  uncertainty k = 0.081765
        17        13        18        24     4      180.000000       42.641376         2    ;  uncertainty k = 0.061085
        17        18        24        13     4      180.000000       42.641376         2    ;  uncertainty k = 0.061085
        17        24        13        18     4      180.000000       42.641376         2    ;  uncertainty k = 0.061085
        19        18        20        21     4      180.000000       31.911121         2    ;  uncertainty k = 0.074029
        19        20        21        18     4      180.000000       31.911121         2    ;  uncertainty k = 0.074029
        19        21        18        20     4      180.000000       31.911121         2    ;  uncertainty k = 0.074029
        21        19        22        49     4      180.000000        1.149575         2    ;  uncertainty k = 0.472329
        21        22        49        19     4      180.000000        1.149575         2    ;  uncertainty k = 0.472329
        21        49        19        22     4      180.000000        1.149575         2    ;  uncertainty k = 0.472329
        22        21        23        24     4      180.000000       31.911121         2    ;  uncertainty k = 0.074029
        22        23        24        21     4      180.000000       31.911121         2    ;  uncertainty k = 0.074029
        22        24        21        23     4      180.000000       31.911121         2    ;  uncertainty k = 0.074029
        25         6        26        27     4      180.000000       12.684093         2    ;  uncertainty k = 0.142840
        25        26        27         6     4      180.000000       12.684093         2    ;  uncertainty k = 0.142840
        25        27         6        26     4      180.000000       12.684093         2    ;  uncertainty k = 0.142840
        26         3        25        53     4      180.000000        3.638508         2    ;  uncertainty k = 0.294245
        26        25        53         3     4      180.000000        3.638508         2    ;  uncertainty k = 0.294245
        26        53         3        25     4      180.000000        3.638508         2    ;  uncertainty k = 0.294245
        29        28        30        54     4      180.000000        0.357339         2    ;  uncertainty k = 0.461486
        29        30        54        28     4      180.000000        0.357339         2    ;  uncertainty k = 0.461486
        29        54        28        30     4      180.000000        0.357339         2    ;  uncertainty k = 0.461486
        30        29        31        55     4      180.000000        0.357340         2    ;  uncertainty k = 0.461488
        30        31        55        29     4      180.000000        0.357340         2    ;  uncertainty k = 0.461488
        30        55        29        31     4      180.000000        0.357340         2    ;  uncertainty k = 0.461488

[ pairs ]
;       ai        aj funct
         1         4     1
         1        26     1
         2         5     1
         2        25     1
         2        35     1
         2        53     1
         3         6     1
         3        27     1
         3        32     1
         3        33     1
         3        34     1
         4         7     1
         4        25     1
         4        53     1
         5         8     1
         5         9     1
         5        26     1
         5        27     1
         6        10     1
         6        16     1
         6        28     1
         6        31     1
         6        35     1
         6        53     1
         7        11     1
         7        15     1
         7        26     1
         7        27     1
         7        36     1
         7        37     1
         7        44     1
         7        45     1
         8        10     1
         8        16     1
         8        25     1
         9        12     1
         9        14     1
         9        25     1
         9        38     1
         9        43     1
        10        13     1
        10        14     1
        10        39     1
        10        40     1
        10        43     1
        10        44     1
        10        45     1
        11        17     1
        11        41     1
        11        42     1
        11        44     1
        11        45     1
        12        16     1
        12        18     1
        12        24     1
        12        36     1
        12        37     1
        12        41     1
        12        42     1
        12        43     1
        13        16     1
        13        19     1
        13        22     1
        13        38     1
        13        43     1
        14        18     1
        14        24     1
        14        38     1
        14        39     1
        14        40     1
        14        44     1
        14        45     1
        15        17     1
        15        36     1
        15        37     1
        15        39     1
        15        40     1
        16        36     1
        16        37     1
        16        38     1
        16        41     1
        16        42     1
        17        20     1
        17        21     1
        17        23     1
        17        39     1
        17        40     1
        17        41     1
        17        42     1
        18        22     1
        18        46     1
        18        47     1
        18        48     1
        18        49     1
        19        23     1
        19        24     1
        20        22     1
        20        49     1
        21        46     1
        21        47     1
        21        48     1
        21        50     1
        21        51     1
        21        52     1
        23        49     1
        24        49     1
        24        50     1
        24        51     1
        24        52     1
        25        29     1
        25        30     1
        26        28     1
        26        31     1
        26        35     1
        27        53     1
        27        54     1
        27        55     1
        28        55     1
        31        54     1
        36        38     1
        37        38     1
        38        39     1
        38        40     1
        38        43     1
        41        43     1
        42        43     1
        43        44     1
        43        45     1
        54        55     1
