; ITP file created by ByteFF-joint-25, 2025-07-14 11:28:38.264446

[ atomtypes ]
;name           bonded.type        at.num        mass        charge   ptype           sigma         epsilon
 c0bf                                   6      0.0000       0.00000       A     3.39773e-01     4.50930e-01    ;  uncertainty sigma = 0.000007, epsilon = 0.000592
 c1bf                                   6      0.0000       0.00000       A     3.31511e-01     4.13145e-01    ;  uncertainty sigma = 0.000011, epsilon = 0.000579
 c2bf                                   6      0.0000       0.00000       A     3.31523e-01     4.13243e-01    ;  uncertainty sigma = 0.000013, epsilon = 0.000737
 c3bf                                   6      0.0000       0.00000       A     3.31511e-01     4.13145e-01    ;  uncertainty sigma = 0.000011, epsilon = 0.000579
 c4bf                                   6      0.0000       0.00000       A     3.39773e-01     4.50930e-01    ;  uncertainty sigma = 0.000007, epsilon = 0.000592
 n5bf                                   7      0.0000       0.00000       A     3.38407e-01     3.93685e-01    ;  uncertainty sigma = 0.000013, epsilon = 0.000791
 c6bf                                   6      0.0000       0.00000       A     3.31545e-01     4.13196e-01    ;  uncertainty sigma = 0.000018, epsilon = 0.000667
 n7bf                                   7      0.0000       0.00000       A     3.38407e-01     3.93685e-01    ;  uncertainty sigma = 0.000013, epsilon = 0.000791
 n8bf                                   7      0.0000       0.00000       A     3.18950e-01     8.99076e-01    ;  uncertainty sigma = 0.000052, epsilon = 0.003577
 c9bf                                   6      0.0000       0.00000       A     3.39774e-01     4.50953e-01    ;  uncertainty sigma = 0.000012, epsilon = 0.001229
 c10bf                                  6      0.0000       0.00000       A     3.39776e-01     4.51373e-01    ;  uncertainty sigma = 0.000009, epsilon = 0.000969
 c11bf                                  6      0.0000       0.00000       A     3.39784e-01     4.51219e-01    ;  uncertainty sigma = 0.000006, epsilon = 0.000696
 n12bf                                  7      0.0000       0.00000       A     3.18079e-01     6.84112e-01    ;  uncertainty sigma = 0.000014, epsilon = 0.001025
 c13bf                                  6      0.0000       0.00000       A     3.39784e-01     4.51219e-01    ;  uncertainty sigma = 0.000006, epsilon = 0.000696
 c14bf                                  6      0.0000       0.00000       A     3.39776e-01     4.51373e-01    ;  uncertainty sigma = 0.000009, epsilon = 0.000969
 c15bf                                  6      0.0000       0.00000       A     3.39774e-01     4.50953e-01    ;  uncertainty sigma = 0.000012, epsilon = 0.001229
 c16bf                                  6      0.0000       0.00000       A     3.31531e-01     4.13275e-01    ;  uncertainty sigma = 0.000024, epsilon = 0.001928
 o17bf                                  8      0.0000       0.00000       A     3.04853e-01     6.12088e-01    ;  uncertainty sigma = 0.000030, epsilon = 0.001067
 c18bf                                  6      0.0000       0.00000       A     3.31550e-01     4.12734e-01    ;  uncertainty sigma = 0.000026, epsilon = 0.001521
 c19bf                                  6      0.0000       0.00000       A     3.31512e-01     4.13678e-01    ;  uncertainty sigma = 0.000010, epsilon = 0.000633
 c20bf                                  6      0.0000       0.00000       A     3.31523e-01     4.13395e-01    ;  uncertainty sigma = 0.000006, epsilon = 0.000496
 cl21bf                                17      0.0000       0.00000       A     3.46608e-01     1.10413e+00    ;  uncertainty sigma = 0.000012, epsilon = 0.001419
 c22bf                                  6      0.0000       0.00000       A     3.31522e-01     4.13429e-01    ;  uncertainty sigma = 0.000005, epsilon = 0.000597
 c23bf                                  6      0.0000       0.00000       A     3.31527e-01     4.13268e-01    ;  uncertainty sigma = 0.000011, epsilon = 0.000972
 c24bf                                  6      0.0000       0.00000       A     3.31562e-01     4.13542e-01    ;  uncertainty sigma = 0.000015, epsilon = 0.001824
 n25bf                                  7      0.0000       0.00000       A     3.20559e-01     8.53661e-01    ;  uncertainty sigma = 0.000029, epsilon = 0.003164
 n26bf                                  7      0.0000       0.00000       A     3.38413e-01     3.93694e-01    ;  uncertainty sigma = 0.000010, epsilon = 0.000693
 c27bf                                  6      0.0000       0.00000       A     3.31537e-01     4.13587e-01    ;  uncertainty sigma = 0.000007, epsilon = 0.000835
 c28bf                                  6      0.0000       0.00000       A     3.31537e-01     4.13587e-01    ;  uncertainty sigma = 0.000007, epsilon = 0.000835
 n29bf                                  7      0.0000       0.00000       A     3.38413e-01     3.93694e-01    ;  uncertainty sigma = 0.000010, epsilon = 0.000693
 h30bf                                  1      0.0000       0.00000       A     2.60034e-01     8.66332e-02    ;  uncertainty sigma = 0.000007, epsilon = 0.000537
 h31bf                                  1      0.0000       0.00000       A     2.60034e-01     8.66332e-02    ;  uncertainty sigma = 0.000007, epsilon = 0.000537
 h32bf                                  1      0.0000       0.00000       A     2.60034e-01     8.66332e-02    ;  uncertainty sigma = 0.000007, epsilon = 0.000537
 h33bf                                  1      0.0000       0.00000       A     2.62580e-01     6.71311e-02    ;  uncertainty sigma = 0.000016, epsilon = 0.000304
 h34bf                                  1      0.0000       0.00000       A     2.60034e-01     8.66332e-02    ;  uncertainty sigma = 0.000007, epsilon = 0.000537
 h35bf                                  1      0.0000       0.00000       A     2.60034e-01     8.66332e-02    ;  uncertainty sigma = 0.000007, epsilon = 0.000537
 h36bf                                  1      0.0000       0.00000       A     2.60034e-01     8.66332e-02    ;  uncertainty sigma = 0.000007, epsilon = 0.000537
 h37bf                                  1      0.0000       0.00000       A     2.42199e-01     8.66324e-02    ;  uncertainty sigma = 0.000024, epsilon = 0.001250
 h38bf                                  1      0.0000       0.00000       A     2.42199e-01     8.66324e-02    ;  uncertainty sigma = 0.000024, epsilon = 0.001250
 h39bf                                  1      0.0000       0.00000       A     2.59994e-01     8.68892e-02    ;  uncertainty sigma = 0.000026, epsilon = 0.000553
 h40bf                                  1      0.0000       0.00000       A     2.42194e-01     8.66543e-02    ;  uncertainty sigma = 0.000021, epsilon = 0.000863
 h41bf                                  1      0.0000       0.00000       A     2.42194e-01     8.66543e-02    ;  uncertainty sigma = 0.000021, epsilon = 0.000863
 h42bf                                  1      0.0000       0.00000       A     2.42194e-01     8.66545e-02    ;  uncertainty sigma = 0.000021, epsilon = 0.000863
 h43bf                                  1      0.0000       0.00000       A     2.42194e-01     8.66545e-02    ;  uncertainty sigma = 0.000021, epsilon = 0.000863
 h44bf                                  1      0.0000       0.00000       A     2.59994e-01     8.68892e-02    ;  uncertainty sigma = 0.000026, epsilon = 0.000553
 h45bf                                  1      0.0000       0.00000       A     2.42199e-01     8.66324e-02    ;  uncertainty sigma = 0.000024, epsilon = 0.001250
 h46bf                                  1      0.0000       0.00000       A     2.42199e-01     8.66324e-02    ;  uncertainty sigma = 0.000024, epsilon = 0.001250
 h47bf                                  1      0.0000       0.00000       A     2.62544e-01     6.71000e-02    ;  uncertainty sigma = 0.000015, epsilon = 0.000585
 h48bf                                  1      0.0000       0.00000       A     2.62561e-01     6.70540e-02    ;  uncertainty sigma = 0.000011, epsilon = 0.000610
 h49bf                                  1      0.0000       0.00000       A     2.62556e-01     6.71790e-02    ;  uncertainty sigma = 0.000011, epsilon = 0.000556
 h50bf                                  1      0.0000       0.00000       A     2.53604e-01     6.70805e-02    ;  uncertainty sigma = 0.000028, epsilon = 0.000600
 h51bf                                  1      0.0000       0.00000       A     2.53604e-01     6.70805e-02    ;  uncertainty sigma = 0.000028, epsilon = 0.000600

[ moleculetype ]
;name             nrexcl
 MOL                   3

[ atoms ]
;       nr            type      resi   res      atom      cgnr      charge          mass ; qtot
         1            c0bf         1   UNL        c0         1    -0.15162       12.0110 ; qtot   -0.152
         2            c1bf         1   UNL        c1         2     0.48649       12.0110 ; qtot    0.335
         3            c2bf         1   UNL        c2         3    -0.41183       12.0110 ; qtot   -0.077
         4            c3bf         1   UNL        c3         4     0.48649       12.0110 ; qtot    0.410
         5            c4bf         1   UNL        c4         5    -0.15162       12.0110 ; qtot    0.258
         6            n5bf         1   UNL        n5         6    -0.77862       14.0070 ; qtot   -0.521
         7            c6bf         1   UNL        c6         7     0.90706       12.0110 ; qtot    0.386
         8            n7bf         1   UNL        n7         8    -0.77862       14.0070 ; qtot   -0.392
         9            n8bf         1   UNL        n8         9    -0.79085       14.0070 ; qtot   -1.183
        10            c9bf         1   UNL        c9        10     0.23390       12.0110 ; qtot   -0.949
        11           c10bf         1   UNL       c10        11    -0.09743       12.0110 ; qtot   -1.047
        12           c11bf         1   UNL       c11        12     0.10795       12.0110 ; qtot   -0.939
        13           n12bf         1   UNL       n12        13    -0.47018       14.0070 ; qtot   -1.409
        14           c13bf         1   UNL       c13        14     0.10795       12.0110 ; qtot   -1.301
        15           c14bf         1   UNL       c14        15    -0.09743       12.0110 ; qtot   -1.398
        16           c15bf         1   UNL       c15        16     0.23390       12.0110 ; qtot   -1.164
        17           c16bf         1   UNL       c16        17     0.69327       12.0110 ; qtot   -0.471
        18           o17bf         1   UNL       o17        18    -0.58815       15.9990 ; qtot   -1.059
        19           c18bf         1   UNL       c18        19    -0.11348       12.0110 ; qtot   -1.173
        20           c19bf         1   UNL       c19        20    -0.08293       12.0110 ; qtot   -1.256
        21           c20bf         1   UNL       c20        21     0.03257       12.0110 ; qtot   -1.223
        22          cl21bf         1   UNL      cl21        22    -0.10525       35.4530 ; qtot   -1.328
        23           c22bf         1   UNL       c22        23    -0.09577       12.0110 ; qtot   -1.424
        24           c23bf         1   UNL       c23        24    -0.10777       12.0110 ; qtot   -1.532
        25           c24bf         1   UNL       c24        25     0.05156       12.0110 ; qtot   -1.480
        26           n25bf         1   UNL       n25        26     0.30465       14.0070 ; qtot   -1.176
        27           n26bf         1   UNL       n26        27    -0.47455       14.0070 ; qtot   -1.650
        28           c27bf         1   UNL       c27        28     0.20275       12.0110 ; qtot   -1.448
        29           c28bf         1   UNL       c28        29     0.20275       12.0110 ; qtot   -1.245
        30           n29bf         1   UNL       n29        30    -0.47455       14.0070 ; qtot   -1.719
        31           h30bf         1   UNL       h30        31     0.05868        1.0080 ; qtot   -1.661
        32           h31bf         1   UNL       h31        32     0.05868        1.0080 ; qtot   -1.602
        33           h32bf         1   UNL       h32        33     0.05868        1.0080 ; qtot   -1.543
        34           h33bf         1   UNL       h33        34     0.15114        1.0080 ; qtot   -1.392
        35           h34bf         1   UNL       h34        35     0.05868        1.0080 ; qtot   -1.333
        36           h35bf         1   UNL       h35        36     0.05868        1.0080 ; qtot   -1.275
        37           h36bf         1   UNL       h36        37     0.05868        1.0080 ; qtot   -1.216
        38           h37bf         1   UNL       h37        38     0.05891        1.0080 ; qtot   -1.157
        39           h38bf         1   UNL       h38        39     0.05891        1.0080 ; qtot   -1.098
        40           h39bf         1   UNL       h39        40     0.07237        1.0080 ; qtot   -1.026
        41           h40bf         1   UNL       h40        41     0.05981        1.0080 ; qtot   -0.966
        42           h41bf         1   UNL       h41        42     0.05981        1.0080 ; qtot   -0.906
        43           h42bf         1   UNL       h42        43     0.05981        1.0080 ; qtot   -0.847
        44           h43bf         1   UNL       h43        44     0.05981        1.0080 ; qtot   -0.787
        45           h44bf         1   UNL       h44        45     0.07237        1.0080 ; qtot   -0.714
        46           h45bf         1   UNL       h45        46     0.05891        1.0080 ; qtot   -0.655
        47           h46bf         1   UNL       h46        47     0.05891        1.0080 ; qtot   -0.597
        48           h47bf         1   UNL       h47        48     0.16514        1.0080 ; qtot   -0.431
        49           h48bf         1   UNL       h48        49     0.15677        1.0080 ; qtot   -0.275
        50           h49bf         1   UNL       h49        50     0.16469        1.0080 ; qtot   -0.110
        51           h50bf         1   UNL       h50        51     0.05496        1.0080 ; qtot   -0.055
        52           h51bf         1   UNL       h51        52     0.05496        1.0080 ; qtot    0.000

[ bonds ]
;       ai        aj funct               r               k
         1         2     1        0.150631   258312.636768    ;  uncertainty r = 0.000036, k = 5.578436
         1        31     1        0.109444   310537.557666    ;  uncertainty r = 0.000015, k = 1.598088
         1        32     1        0.109444   310537.557666    ;  uncertainty r = 0.000015, k = 1.598088
         1        33     1        0.109444   310537.557666    ;  uncertainty r = 0.000015, k = 1.598088
         2         3     1        0.140287   430446.109863    ;  uncertainty r = 0.000066, k = 4.969217
         2         8     1        0.134238   464612.770313    ;  uncertainty r = 0.000041, k = 6.904087
         3         4     1        0.140287   430446.109863    ;  uncertainty r = 0.000066, k = 4.969217
         3        34     1        0.108737   344393.252734    ;  uncertainty r = 0.000026, k = 3.476286
         4         5     1        0.150631   258312.636768    ;  uncertainty r = 0.000036, k = 5.578436
         4         6     1        0.134238   464612.770313    ;  uncertainty r = 0.000041, k = 6.904087
         5        35     1        0.109444   310537.557666    ;  uncertainty r = 0.000015, k = 1.598088
         5        36     1        0.109444   310537.557666    ;  uncertainty r = 0.000015, k = 1.598088
         5        37     1        0.109444   310537.557666    ;  uncertainty r = 0.000015, k = 1.598088
         6         7     1        0.135351   495763.447070    ;  uncertainty r = 0.000102, k = 13.751618
         7         8     1        0.135351   495763.447070    ;  uncertainty r = 0.000102, k = 13.751618
         7         9     1        0.136652   318374.973145    ;  uncertainty r = 0.000092, k = 21.200785
         9        10     1        0.146381   223708.423486    ;  uncertainty r = 0.000058, k = 14.342670
         9        16     1        0.146381   223708.423486    ;  uncertainty r = 0.000058, k = 14.342768
        10        11     1        0.153378   218045.467334    ;  uncertainty r = 0.000067, k = 7.088220
        10        38     1        0.109551   306518.450781    ;  uncertainty r = 0.000069, k = 2.534282
        10        39     1        0.109551   306518.450781    ;  uncertainty r = 0.000069, k = 2.534282
        11        12     1        0.153480   216617.049121    ;  uncertainty r = 0.000023, k = 7.412723
        11        15     1        0.154451   200722.496875    ;  uncertainty r = 0.000080, k = 20.796785
        11        40     1        0.109350   305021.261133    ;  uncertainty r = 0.000029, k = 3.829702
        12        13     1        0.147066   239433.741309    ;  uncertainty r = 0.000053, k = 14.441706
        12        41     1        0.109439   307434.875488    ;  uncertainty r = 0.000026, k = 1.171544
        12        42     1        0.109439   307434.875488    ;  uncertainty r = 0.000026, k = 1.171544
        13        14     1        0.147066   239433.741309    ;  uncertainty r = 0.000053, k = 14.441669
        13        17     1        0.135408   331347.875781    ;  uncertainty r = 0.000059, k = 10.696624
        14        15     1        0.153480   216617.049121    ;  uncertainty r = 0.000023, k = 7.412681
        14        43     1        0.109439   307434.875488    ;  uncertainty r = 0.000026, k = 1.171521
        14        44     1        0.109439   307434.875488    ;  uncertainty r = 0.000026, k = 1.171521
        15        16     1        0.153378   218045.441797    ;  uncertainty r = 0.000067, k = 7.088228
        15        45     1        0.109350   305021.261133    ;  uncertainty r = 0.000029, k = 3.829660
        16        46     1        0.109551   306518.450781    ;  uncertainty r = 0.000069, k = 2.534287
        16        47     1        0.109551   306518.450781    ;  uncertainty r = 0.000069, k = 2.534287
        17        18     1        0.123625   753790.757715    ;  uncertainty r = 0.000074, k = 7.767995
        17        19     1        0.150864   268280.843115    ;  uncertainty r = 0.000065, k = 22.520951
        19        20     1        0.139392   348643.087402    ;  uncertainty r = 0.000078, k = 11.558144
        19        25     1        0.139421   322126.272363    ;  uncertainty r = 0.000095, k = 5.010549
        20        21     1        0.139238   359182.839795    ;  uncertainty r = 0.000060, k = 1.364873
        20        48     1        0.108632   330440.312451    ;  uncertainty r = 0.000021, k = 1.792513
        21        22     1        0.175516   200037.425610    ;  uncertainty r = 0.000025, k = 4.403239
        21        23     1        0.139388   367434.467187    ;  uncertainty r = 0.000049, k = 2.201234
        23        24     1        0.138860   374292.304688    ;  uncertainty r = 0.000036, k = 3.811846
        23        49     1        0.108704   334507.939844    ;  uncertainty r = 0.000024, k = 0.918256
        24        25     1        0.139281   336369.595117    ;  uncertainty r = 0.000095, k = 4.305481
        24        50     1        0.108604   332899.050879    ;  uncertainty r = 0.000016, k = 1.381927
        25        26     1        0.140622   319290.606201    ;  uncertainty r = 0.000104, k = 3.255877
        26        27     1        0.134382   229492.272314    ;  uncertainty r = 0.000067, k = 8.378605
        26        30     1        0.134382   229492.272314    ;  uncertainty r = 0.000067, k = 8.378605
        27        28     1        0.132965   463550.937305    ;  uncertainty r = 0.000052, k = 7.730519
        28        29     1        0.141781   249584.001709    ;  uncertainty r = 0.000103, k = 15.332670
        28        51     1        0.108418   339910.136572    ;  uncertainty r = 0.000037, k = 1.124302
        29        30     1        0.132965   463550.937305    ;  uncertainty r = 0.000052, k = 7.730519
        29        52     1        0.108418   339910.136572    ;  uncertainty r = 0.000037, k = 1.124302

[ angles ]
;       ai        aj        ak funct           theta             cth
         1         2         3     1      122.372604      418.636154    ;  uncertainty theta = 0.002202, k = 0.178974
         1         2         8     1      118.694351      504.935496    ;  uncertainty theta = 0.002079, k = 0.183388
         2         1        31     1      108.943436      385.594359    ;  uncertainty theta = 0.001293, k = 0.046207
         2         1        32     1      108.943436      385.594359    ;  uncertainty theta = 0.001293, k = 0.046207
         2         1        33     1      108.943436      385.594359    ;  uncertainty theta = 0.001293, k = 0.046207
         2         3         4     1      116.498520      460.598349    ;  uncertainty theta = 0.005053, k = 0.122034
         2         3        34     1      121.718430      273.369457    ;  uncertainty theta = 0.001159, k = 0.085456
         2         8         7     1      115.347641      408.898855    ;  uncertainty theta = 0.006383, k = 0.283100
         3         2         8     1      120.465759      656.141103    ;  uncertainty theta = 0.004510, k = 0.102828
         3         4         5     1      122.372604      418.636154    ;  uncertainty theta = 0.002202, k = 0.178974
         3         4         6     1      120.465759      656.141103    ;  uncertainty theta = 0.004510, k = 0.102828
         4         3        34     1      121.718430      273.369457    ;  uncertainty theta = 0.001159, k = 0.085456
         4         5        35     1      108.943436      385.594359    ;  uncertainty theta = 0.001293, k = 0.046207
         4         5        36     1      108.943436      385.594359    ;  uncertainty theta = 0.001293, k = 0.046207
         4         5        37     1      108.943436      385.594359    ;  uncertainty theta = 0.001293, k = 0.046207
         4         6         7     1      115.347641      408.898855    ;  uncertainty theta = 0.006383, k = 0.283100
         5         4         6     1      118.694351      504.935496    ;  uncertainty theta = 0.002079, k = 0.183388
         6         7         8     1      129.113480      717.709797    ;  uncertainty theta = 0.004729, k = 0.118642
         6         7         9     1      119.537033      549.082007    ;  uncertainty theta = 0.007399, k = 0.202209
         7         9        10     1      113.699562      433.285581    ;  uncertainty theta = 0.003934, k = 0.215172
         7         9        16     1      113.699562      433.285581    ;  uncertainty theta = 0.003934, k = 0.215172
         8         7         9     1      119.537033      549.082007    ;  uncertainty theta = 0.007399, k = 0.202209
         9        10        11     1      105.543358      834.662672    ;  uncertainty theta = 0.001817, k = 0.093259
         9        10        38     1      108.562340      456.415882    ;  uncertainty theta = 0.001202, k = 0.062362
         9        10        39     1      108.562340      456.415882    ;  uncertainty theta = 0.001202, k = 0.062362
         9        16        15     1      105.543358      834.662672    ;  uncertainty theta = 0.001817, k = 0.093260
         9        16        46     1      108.562340      456.415882    ;  uncertainty theta = 0.001202, k = 0.062362
         9        16        47     1      108.562340      456.415882    ;  uncertainty theta = 0.001202, k = 0.062362
        10         9        16     1      112.639450      489.228386    ;  uncertainty theta = 0.009972, k = 0.334405
        10        11        12     1      113.001526      495.885112    ;  uncertainty theta = 0.002967, k = 0.272650
        10        11        15     1      106.407143      696.228300    ;  uncertainty theta = 0.000820, k = 0.121960
        10        11        40     1      108.909218      387.529593    ;  uncertainty theta = 0.002428, k = 0.196423
        11        10        38     1      109.942749      401.681046    ;  uncertainty theta = 0.001744, k = 0.042629
        11        10        39     1      109.942749      401.681046    ;  uncertainty theta = 0.001744, k = 0.042629
        11        12        13     1      106.107704      800.252694    ;  uncertainty theta = 0.003120, k = 0.175972
        11        12        41     1      109.812805      398.157914    ;  uncertainty theta = 0.002056, k = 0.096133
        11        12        42     1      109.812805      398.157914    ;  uncertainty theta = 0.002056, k = 0.096133
        11        15        14     1      106.536072      683.535718    ;  uncertainty theta = 0.002057, k = 0.120116
        11        15        16     1      106.407143      696.228492    ;  uncertainty theta = 0.000820, k = 0.121960
        11        15        45     1      109.787766      408.249925    ;  uncertainty theta = 0.001833, k = 0.098421
        12        11        15     1      106.536072      683.535654    ;  uncertainty theta = 0.002057, k = 0.120117
        12        11        40     1      108.976547      381.109245    ;  uncertainty theta = 0.002391, k = 0.150517
        12        13        14     1      114.291725      544.244257    ;  uncertainty theta = 0.003124, k = 0.147477
        12        13        17     1      117.960464      361.249833    ;  uncertainty theta = 0.004252, k = 0.079724
        13        12        41     1      109.290787      458.934703    ;  uncertainty theta = 0.001401, k = 0.102756
        13        12        42     1      109.290787      458.934703    ;  uncertainty theta = 0.001401, k = 0.102756
        13        14        15     1      106.107704      800.252694    ;  uncertainty theta = 0.003120, k = 0.175972
        13        14        43     1      109.290787      458.934703    ;  uncertainty theta = 0.001401, k = 0.102756
        13        14        44     1      109.290787      458.934703    ;  uncertainty theta = 0.001401, k = 0.102756
        13        17        18     1      124.813148      736.163742    ;  uncertainty theta = 0.001865, k = 0.116101
        13        17        19     1      112.475174      377.588347    ;  uncertainty theta = 0.003210, k = 0.218560
        14        13        17     1      117.960464      361.249833    ;  uncertainty theta = 0.004252, k = 0.079725
        14        15        16     1      113.001526      495.885112    ;  uncertainty theta = 0.002967, k = 0.272650
        14        15        45     1      108.976547      381.109245    ;  uncertainty theta = 0.002391, k = 0.150517
        15        11        40     1      109.787766      408.249925    ;  uncertainty theta = 0.001833, k = 0.098421
        15        14        43     1      109.812805      398.157914    ;  uncertainty theta = 0.002056, k = 0.096133
        15        14        44     1      109.812805      398.157914    ;  uncertainty theta = 0.002056, k = 0.096133
        15        16        46     1      109.942749      401.681014    ;  uncertainty theta = 0.001744, k = 0.042629
        15        16        47     1      109.942749      401.681014    ;  uncertainty theta = 0.001744, k = 0.042629
        16        15        45     1      108.909218      387.529561    ;  uncertainty theta = 0.002428, k = 0.196423
        17        19        20     1      121.238304      378.771035    ;  uncertainty theta = 0.008109, k = 0.116277
        17        19        25     1      121.718018      353.534306    ;  uncertainty theta = 0.008065, k = 0.385214
        18        17        19     1      124.744446      484.192787    ;  uncertainty theta = 0.004410, k = 0.288699
        19        20        21     1      120.196655      474.633545    ;  uncertainty theta = 0.003637, k = 0.116488
        19        20        48     1      120.041183      264.657919    ;  uncertainty theta = 0.002925, k = 0.137303
        19        25        24     1      125.366623      390.386302    ;  uncertainty theta = 0.005978, k = 0.221241
        19        25        26     1      116.438034      424.638652    ;  uncertainty theta = 0.005942, k = 0.367187
        20        19        25     1      122.175308      445.463111    ;  uncertainty theta = 0.010307, k = 0.145471
        20        21        22     1      120.147781      421.845275    ;  uncertainty theta = 0.001301, k = 0.065355
        20        21        23     1      120.068314      377.038470    ;  uncertainty theta = 0.001922, k = 0.119727
        21        20        48     1      121.136414      292.845014    ;  uncertainty theta = 0.002332, k = 0.091318
        21        23        24     1      117.847939      486.003783    ;  uncertainty theta = 0.001702, k = 0.090553
        21        23        49     1      121.209885      285.620757    ;  uncertainty theta = 0.001475, k = 0.043431
        22        21        23     1      120.617332      440.421352    ;  uncertainty theta = 0.000799, k = 0.074887
        23        24        25     1      120.836349      509.101364    ;  uncertainty theta = 0.001876, k = 0.113544
        23        24        50     1      120.748230      288.419273    ;  uncertainty theta = 0.001000, k = 0.057971
        24        23        49     1      120.488525      275.841066    ;  uncertainty theta = 0.001737, k = 0.014412
        24        25        26     1      118.279602      454.711663    ;  uncertainty theta = 0.003505, k = 0.159681
        25        24        50     1      118.013611      263.553998    ;  uncertainty theta = 0.004048, k = 0.169516
        25        26        27     1      116.326271      433.870987    ;  uncertainty theta = 0.006671, k = 0.155414
        25        26        30     1      116.326271      433.870987    ;  uncertainty theta = 0.006671, k = 0.155414
        26        27        28     1      105.335411      921.283525    ;  uncertainty theta = 0.004612, k = 0.162990
        26        30        29     1      105.335411      921.283525    ;  uncertainty theta = 0.004612, k = 0.162990
        27        26        30     1      113.886658     1161.036889    ;  uncertainty theta = 0.004145, k = 0.186801
        27        28        29     1      108.874611      885.375859    ;  uncertainty theta = 0.003815, k = 0.097431
        27        28        51     1      119.790878      274.219077    ;  uncertainty theta = 0.003825, k = 0.115835
        28        29        30     1      108.874611      885.375859    ;  uncertainty theta = 0.003815, k = 0.097431
        28        29        52     1      127.065453      242.460680    ;  uncertainty theta = 0.004115, k = 0.077998
        29        28        51     1      127.065453      242.460680    ;  uncertainty theta = 0.004115, k = 0.077998
        30        29        52     1      119.790878      274.219077    ;  uncertainty theta = 0.003825, k = 0.115835
        31         1        32     1      107.153793      312.530167    ;  uncertainty theta = 0.001242, k = 0.032267
        31         1        33     1      107.153793      312.530167    ;  uncertainty theta = 0.001242, k = 0.032267
        32         1        33     1      107.153793      312.530167    ;  uncertainty theta = 0.001242, k = 0.032267
        35         5        36     1      107.153793      312.530167    ;  uncertainty theta = 0.001242, k = 0.032267
        35         5        37     1      107.153793      312.530167    ;  uncertainty theta = 0.001242, k = 0.032267
        36         5        37     1      107.153793      312.530167    ;  uncertainty theta = 0.001242, k = 0.032267
        38        10        39     1      105.123001      312.324913    ;  uncertainty theta = 0.002382, k = 0.114503
        41        12        42     1      105.371437      309.387890    ;  uncertainty theta = 0.003860, k = 0.079571
        43        14        44     1      105.371437      309.387890    ;  uncertainty theta = 0.003860, k = 0.079571
        46        16        47     1      105.123001      312.324913    ;  uncertainty theta = 0.002382, k = 0.114503

[ dihedrals ] ; propers for gromacs 4.5 or higher, use funct 9
;       ai        aj        ak        al funct           phase               k        pn
         1         2         3         4     9        0.000000       -0.007202         1    ;  uncertainty k = 0.501717
         1         2         3         4     9      180.000000        7.613770         2    ;  uncertainty k = 0.266340
         1         2         3         4     9        0.000000        0.944105         3    ;  uncertainty k = 0.227996
         1         2         3         4     9      180.000000        1.305657         4    ;  uncertainty k = 0.239337
         1         2         3        34     9        0.000000       -0.261675         1    ;  uncertainty k = 0.315637
         1         2         3        34     9      180.000000        6.874962         2    ;  uncertainty k = 0.342650
         1         2         3        34     9        0.000000        0.656535         3    ;  uncertainty k = 0.284603
         1         2         3        34     9      180.000000        0.765991         4    ;  uncertainty k = 0.276599
         1         2         8         7     9        0.000000        0.048315         1    ;  uncertainty k = 0.979765
         1         2         8         7     9      180.000000       15.003732         2    ;  uncertainty k = 0.544478
         1         2         8         7     9        0.000000        2.381190         3    ;  uncertainty k = 0.363196
         1         2         8         7     9      180.000000        1.660639         4    ;  uncertainty k = 0.462769
         2         3         4         5     9        0.000000       -0.007202         1    ;  uncertainty k = 0.501717
         2         3         4         5     9      180.000000        7.613770         2    ;  uncertainty k = 0.266340
         2         3         4         5     9        0.000000        0.944105         3    ;  uncertainty k = 0.227996
         2         3         4         5     9      180.000000        1.305657         4    ;  uncertainty k = 0.239337
         2         3         4         6     9        0.000000       -0.216009         1    ;  uncertainty k = 0.356936
         2         3         4         6     9      180.000000       11.910555         2    ;  uncertainty k = 0.424709
         2         3         4         6     9        0.000000       -1.407438         3    ;  uncertainty k = 0.758939
         2         3         4         6     9      180.000000        0.980955         4    ;  uncertainty k = 0.077687
         2         8         7         6     9        0.000000       -0.609060         1    ;  uncertainty k = 0.758199
         2         8         7         6     9      180.000000        8.692615         2    ;  uncertainty k = 0.791818
         2         8         7         6     9        0.000000        0.670286         3    ;  uncertainty k = 0.621159
         2         8         7         6     9      180.000000        0.786580         4    ;  uncertainty k = 0.112571
         2         8         7         9     9        0.000000        0.521917         1    ;  uncertainty k = 0.979110
         2         8         7         9     9      180.000000       10.533274         2    ;  uncertainty k = 0.414227
         2         8         7         9     9        0.000000        1.726081         3    ;  uncertainty k = 0.365721
         2         8         7         9     9      180.000000        0.994637         4    ;  uncertainty k = 0.141068
         3         2         1        31     9        0.000000       -0.250297         1    ;  uncertainty k = 0.274873
         3         2         1        31     9      180.000000        2.290444         2    ;  uncertainty k = 0.171777
         3         2         1        31     9        0.000000        0.278065         3    ;  uncertainty k = 0.038017
         3         2         1        31     9      180.000000        0.146673         4    ;  uncertainty k = 0.025666
         3         2         1        32     9        0.000000       -0.250297         1    ;  uncertainty k = 0.274873
         3         2         1        32     9      180.000000        2.290444         2    ;  uncertainty k = 0.171777
         3         2         1        32     9        0.000000        0.278065         3    ;  uncertainty k = 0.038017
         3         2         1        32     9      180.000000        0.146673         4    ;  uncertainty k = 0.025666
         3         2         1        33     9        0.000000       -0.250297         1    ;  uncertainty k = 0.274873
         3         2         1        33     9      180.000000        2.290444         2    ;  uncertainty k = 0.171777
         3         2         1        33     9        0.000000        0.278065         3    ;  uncertainty k = 0.038017
         3         2         1        33     9      180.000000        0.146673         4    ;  uncertainty k = 0.025666
         3         2         8         7     9        0.000000       -0.347754         1    ;  uncertainty k = 0.474198
         3         2         8         7     9      180.000000       15.075407         2    ;  uncertainty k = 0.177114
         3         2         8         7     9        0.000000        0.171723         3    ;  uncertainty k = 0.438996
         3         2         8         7     9      180.000000        1.128465         4    ;  uncertainty k = 0.364424
         3         4         5        35     9        0.000000       -0.250297         1    ;  uncertainty k = 0.274873
         3         4         5        35     9      180.000000        2.290444         2    ;  uncertainty k = 0.171777
         3         4         5        35     9        0.000000        0.278065         3    ;  uncertainty k = 0.038017
         3         4         5        35     9      180.000000        0.146673         4    ;  uncertainty k = 0.025666
         3         4         5        36     9        0.000000       -0.250297         1    ;  uncertainty k = 0.274873
         3         4         5        36     9      180.000000        2.290444         2    ;  uncertainty k = 0.171777
         3         4         5        36     9        0.000000        0.278065         3    ;  uncertainty k = 0.038017
         3         4         5        36     9      180.000000        0.146673         4    ;  uncertainty k = 0.025666
         3         4         5        37     9        0.000000       -0.250297         1    ;  uncertainty k = 0.274873
         3         4         5        37     9      180.000000        2.290444         2    ;  uncertainty k = 0.171777
         3         4         5        37     9        0.000000        0.278065         3    ;  uncertainty k = 0.038017
         3         4         5        37     9      180.000000        0.146673         4    ;  uncertainty k = 0.025666
         3         4         6         7     9        0.000000       -0.347754         1    ;  uncertainty k = 0.474198
         3         4         6         7     9      180.000000       15.075407         2    ;  uncertainty k = 0.177114
         3         4         6         7     9        0.000000        0.171723         3    ;  uncertainty k = 0.438996
         3         4         6         7     9      180.000000        1.128465         4    ;  uncertainty k = 0.364424
         4         3         2         8     9        0.000000       -0.216009         1    ;  uncertainty k = 0.356936
         4         3         2         8     9      180.000000       11.910555         2    ;  uncertainty k = 0.424709
         4         3         2         8     9        0.000000       -1.407438         3    ;  uncertainty k = 0.758939
         4         3         2         8     9      180.000000        0.980955         4    ;  uncertainty k = 0.077687
         4         6         7         8     9        0.000000       -0.609060         1    ;  uncertainty k = 0.758199
         4         6         7         8     9      180.000000        8.692615         2    ;  uncertainty k = 0.791818
         4         6         7         8     9        0.000000        0.670286         3    ;  uncertainty k = 0.621159
         4         6         7         8     9      180.000000        0.786580         4    ;  uncertainty k = 0.112571
         4         6         7         9     9        0.000000        0.521917         1    ;  uncertainty k = 0.979110
         4         6         7         9     9      180.000000       10.533274         2    ;  uncertainty k = 0.414227
         4         6         7         9     9        0.000000        1.726081         3    ;  uncertainty k = 0.365721
         4         6         7         9     9      180.000000        0.994637         4    ;  uncertainty k = 0.141068
         5         4         3        34     9        0.000000       -0.261675         1    ;  uncertainty k = 0.315637
         5         4         3        34     9      180.000000        6.874962         2    ;  uncertainty k = 0.342650
         5         4         3        34     9        0.000000        0.656535         3    ;  uncertainty k = 0.284603
         5         4         3        34     9      180.000000        0.765991         4    ;  uncertainty k = 0.276599
         5         4         6         7     9        0.000000        0.048315         1    ;  uncertainty k = 0.979765
         5         4         6         7     9      180.000000       15.003732         2    ;  uncertainty k = 0.544478
         5         4         6         7     9        0.000000        2.381190         3    ;  uncertainty k = 0.363196
         5         4         6         7     9      180.000000        1.660639         4    ;  uncertainty k = 0.462769
         6         4         3        34     9        0.000000        0.224609         1    ;  uncertainty k = 0.474805
         6         4         3        34     9      180.000000        8.441723         2    ;  uncertainty k = 0.328864
         6         4         3        34     9        0.000000        1.108367         3    ;  uncertainty k = 0.321336
         6         4         3        34     9      180.000000        1.600213         4    ;  uncertainty k = 0.093449
         6         4         5        35     9        0.000000        0.603364         1    ;  uncertainty k = 0.264623
         6         4         5        35     9      180.000000        3.634560         2    ;  uncertainty k = 0.065840
         6         4         5        35     9        0.000000        0.492173         3    ;  uncertainty k = 0.029988
         6         4         5        35     9      180.000000        0.275109         4    ;  uncertainty k = 0.045162
         6         4         5        36     9        0.000000        0.603364         1    ;  uncertainty k = 0.264623
         6         4         5        36     9      180.000000        3.634560         2    ;  uncertainty k = 0.065840
         6         4         5        36     9        0.000000        0.492173         3    ;  uncertainty k = 0.029988
         6         4         5        36     9      180.000000        0.275109         4    ;  uncertainty k = 0.045162
         6         4         5        37     9        0.000000        0.603364         1    ;  uncertainty k = 0.264623
         6         4         5        37     9      180.000000        3.634560         2    ;  uncertainty k = 0.065840
         6         4         5        37     9        0.000000        0.492173         3    ;  uncertainty k = 0.029988
         6         4         5        37     9      180.000000        0.275109         4    ;  uncertainty k = 0.045162
         6         7         9        10     9        0.000000        5.106263         1    ;  uncertainty k = 0.513053
         6         7         9        10     9      180.000000       11.756744         2    ;  uncertainty k = 0.134928
         6         7         9        10     9        0.000000        0.174633         3    ;  uncertainty k = 0.195421
         6         7         9        10     9      180.000000       -0.347384         4    ;  uncertainty k = 0.051935
         6         7         9        16     9        0.000000        5.106262         1    ;  uncertainty k = 0.513053
         6         7         9        16     9      180.000000       11.756744         2    ;  uncertainty k = 0.134928
         6         7         9        16     9        0.000000        0.174633         3    ;  uncertainty k = 0.195420
         6         7         9        16     9      180.000000       -0.347384         4    ;  uncertainty k = 0.051934
         7         9        10        11     9        0.000000       -5.472950         1    ;  uncertainty k = 1.903105
         7         9        10        11     9      180.000000        0.716175         2    ;  uncertainty k = 0.687896
         7         9        10        11     9        0.000000        0.811633         3    ;  uncertainty k = 0.285403
         7         9        10        11     9      180.000000        0.315930         4    ;  uncertainty k = 0.127584
         7         9        10        38     9        0.000000       -0.203572         1    ;  uncertainty k = 0.772783
         7         9        10        38     9      180.000000        1.020940         2    ;  uncertainty k = 0.423811
         7         9        10        38     9        0.000000        0.580937         3    ;  uncertainty k = 0.130796
         7         9        10        38     9      180.000000        0.377931         4    ;  uncertainty k = 0.101923
         7         9        10        39     9        0.000000       -0.203572         1    ;  uncertainty k = 0.772783
         7         9        10        39     9      180.000000        1.020940         2    ;  uncertainty k = 0.423811
         7         9        10        39     9        0.000000        0.580937         3    ;  uncertainty k = 0.130796
         7         9        10        39     9      180.000000        0.377931         4    ;  uncertainty k = 0.101923
         7         9        16        15     9        0.000000       -5.472951         1    ;  uncertainty k = 1.903105
         7         9        16        15     9      180.000000        0.716175         2    ;  uncertainty k = 0.687896
         7         9        16        15     9        0.000000        0.811634         3    ;  uncertainty k = 0.285402
         7         9        16        15     9      180.000000        0.315929         4    ;  uncertainty k = 0.127584
         7         9        16        46     9        0.000000       -0.203573         1    ;  uncertainty k = 0.772782
         7         9        16        46     9      180.000000        1.020940         2    ;  uncertainty k = 0.423811
         7         9        16        46     9        0.000000        0.580937         3    ;  uncertainty k = 0.130796
         7         9        16        46     9      180.000000        0.377930         4    ;  uncertainty k = 0.101923
         7         9        16        47     9        0.000000       -0.203573         1    ;  uncertainty k = 0.772782
         7         9        16        47     9      180.000000        1.020940         2    ;  uncertainty k = 0.423811
         7         9        16        47     9        0.000000        0.580937         3    ;  uncertainty k = 0.130796
         7         9        16        47     9      180.000000        0.377930         4    ;  uncertainty k = 0.101923
         8         2         1        31     9        0.000000        0.603364         1    ;  uncertainty k = 0.264623
         8         2         1        31     9      180.000000        3.634560         2    ;  uncertainty k = 0.065840
         8         2         1        31     9        0.000000        0.492173         3    ;  uncertainty k = 0.029988
         8         2         1        31     9      180.000000        0.275109         4    ;  uncertainty k = 0.045162
         8         2         1        32     9        0.000000        0.603364         1    ;  uncertainty k = 0.264623
         8         2         1        32     9      180.000000        3.634560         2    ;  uncertainty k = 0.065840
         8         2         1        32     9        0.000000        0.492173         3    ;  uncertainty k = 0.029988
         8         2         1        32     9      180.000000        0.275109         4    ;  uncertainty k = 0.045162
         8         2         1        33     9        0.000000        0.603364         1    ;  uncertainty k = 0.264623
         8         2         1        33     9      180.000000        3.634560         2    ;  uncertainty k = 0.065840
         8         2         1        33     9        0.000000        0.492173         3    ;  uncertainty k = 0.029988
         8         2         1        33     9      180.000000        0.275109         4    ;  uncertainty k = 0.045162
         8         2         3        34     9        0.000000        0.224609         1    ;  uncertainty k = 0.474805
         8         2         3        34     9      180.000000        8.441723         2    ;  uncertainty k = 0.328864
         8         2         3        34     9        0.000000        1.108367         3    ;  uncertainty k = 0.321336
         8         2         3        34     9      180.000000        1.600213         4    ;  uncertainty k = 0.093449
         8         7         9        10     9        0.000000        5.106263         1    ;  uncertainty k = 0.513053
         8         7         9        10     9      180.000000       11.756744         2    ;  uncertainty k = 0.134928
         8         7         9        10     9        0.000000        0.174633         3    ;  uncertainty k = 0.195421
         8         7         9        10     9      180.000000       -0.347384         4    ;  uncertainty k = 0.051935
         8         7         9        16     9        0.000000        5.106262         1    ;  uncertainty k = 0.513053
         8         7         9        16     9      180.000000       11.756744         2    ;  uncertainty k = 0.134928
         8         7         9        16     9        0.000000        0.174633         3    ;  uncertainty k = 0.195420
         8         7         9        16     9      180.000000       -0.347384         4    ;  uncertainty k = 0.051934
         9        10        11        12     9        0.000000       -1.986983         1    ;  uncertainty k = 1.131585
         9        10        11        12     9      180.000000        0.974418         2    ;  uncertainty k = 0.865255
         9        10        11        12     9        0.000000        1.658617         3    ;  uncertainty k = 0.387465
         9        10        11        12     9      180.000000       -0.170489         4    ;  uncertainty k = 0.236446
         9        10        11        15     9        0.000000       -0.248944         1    ;  uncertainty k = 1.669287
         9        10        11        15     9      180.000000        6.161827         2    ;  uncertainty k = 1.110762
         9        10        11        15     9        0.000000        0.670927         3    ;  uncertainty k = 0.347090
         9        10        11        15     9      180.000000       -1.488831         4    ;  uncertainty k = 0.506459
         9        10        11        40     9        0.000000        0.565924         1    ;  uncertainty k = 0.856652
         9        10        11        40     9      180.000000        1.324273         2    ;  uncertainty k = 0.513614
         9        10        11        40     9        0.000000        1.171168         3    ;  uncertainty k = 0.217599
         9        10        11        40     9      180.000000       -0.072433         4    ;  uncertainty k = 0.184790
         9        16        15        11     9        0.000000       -0.248943         1    ;  uncertainty k = 1.669287
         9        16        15        11     9      180.000000        6.161829         2    ;  uncertainty k = 1.110761
         9        16        15        11     9        0.000000        0.670927         3    ;  uncertainty k = 0.347090
         9        16        15        11     9      180.000000       -1.488831         4    ;  uncertainty k = 0.506459
         9        16        15        14     9        0.000000       -1.986983         1    ;  uncertainty k = 1.131581
         9        16        15        14     9      180.000000        0.974419         2    ;  uncertainty k = 0.865256
         9        16        15        14     9        0.000000        1.658617         3    ;  uncertainty k = 0.387464
         9        16        15        14     9      180.000000       -0.170489         4    ;  uncertainty k = 0.236446
         9        16        15        45     9        0.000000        0.565926         1    ;  uncertainty k = 0.856651
         9        16        15        45     9      180.000000        1.324272         2    ;  uncertainty k = 0.513614
         9        16        15        45     9        0.000000        1.171168         3    ;  uncertainty k = 0.217601
         9        16        15        45     9      180.000000       -0.072433         4    ;  uncertainty k = 0.184790
        10         9        16        15     9        0.000000        0.409930         1    ;  uncertainty k = 1.033845
        10         9        16        15     9      180.000000        1.423325         2    ;  uncertainty k = 1.181231
        10         9        16        15     9        0.000000        0.860226         3    ;  uncertainty k = 0.332034
        10         9        16        15     9      180.000000        0.010765         4    ;  uncertainty k = 0.168707
        10         9        16        46     9        0.000000       -2.106813         1    ;  uncertainty k = 0.722683
        10         9        16        46     9      180.000000        1.271153         2    ;  uncertainty k = 0.391419
        10         9        16        46     9        0.000000        1.144989         3    ;  uncertainty k = 0.081016
        10         9        16        46     9      180.000000        0.249969         4    ;  uncertainty k = 0.124009
        10         9        16        47     9        0.000000       -2.106813         1    ;  uncertainty k = 0.722683
        10         9        16        47     9      180.000000        1.271153         2    ;  uncertainty k = 0.391419
        10         9        16        47     9        0.000000        1.144989         3    ;  uncertainty k = 0.081016
        10         9        16        47     9      180.000000        0.249969         4    ;  uncertainty k = 0.124009
        10        11        12        13     9        0.000000       -2.553642         1    ;  uncertainty k = 1.026054
        10        11        12        13     9      180.000000       -0.018661         2    ;  uncertainty k = 0.745822
        10        11        12        13     9        0.000000        1.607209         3    ;  uncertainty k = 0.236201
        10        11        12        13     9      180.000000       -0.188588         4    ;  uncertainty k = 0.120205
        10        11        12        41     9        0.000000       -0.498818         1    ;  uncertainty k = 0.107247
        10        11        12        41     9      180.000000       -0.409706         2    ;  uncertainty k = 0.197166
        10        11        12        41     9        0.000000        0.564543         3    ;  uncertainty k = 0.186998
        10        11        12        41     9      180.000000       -0.072177         4    ;  uncertainty k = 0.062323
        10        11        12        42     9        0.000000       -0.498818         1    ;  uncertainty k = 0.107247
        10        11        12        42     9      180.000000       -0.409706         2    ;  uncertainty k = 0.197166
        10        11        12        42     9        0.000000        0.564543         3    ;  uncertainty k = 0.186998
        10        11        12        42     9      180.000000       -0.072177         4    ;  uncertainty k = 0.062323
        10        11        15        14     9        0.000000       -3.847150         1    ;  uncertainty k = 0.842081
        10        11        15        14     9      180.000000        0.994502         2    ;  uncertainty k = 1.017626
        10        11        15        14     9        0.000000        1.189094         3    ;  uncertainty k = 0.581588
        10        11        15        14     9      180.000000       -0.416044         4    ;  uncertainty k = 0.334399
        10        11        15        16     9        0.000000       -3.896618         1    ;  uncertainty k = 1.087275
        10        11        15        16     9      180.000000        1.035025         2    ;  uncertainty k = 1.026286
        10        11        15        16     9        0.000000        1.207838         3    ;  uncertainty k = 0.671623
        10        11        15        16     9      180.000000       -0.436931         4    ;  uncertainty k = 0.343366
        10        11        15        45     9        0.000000       -1.223112         1    ;  uncertainty k = 0.611377
        10        11        15        45     9      180.000000        0.489634         2    ;  uncertainty k = 0.414978
        10        11        15        45     9        0.000000        0.997353         3    ;  uncertainty k = 0.241670
        10        11        15        45     9      180.000000        0.066778         4    ;  uncertainty k = 0.087125
        11        10         9        16     9        0.000000        0.409931         1    ;  uncertainty k = 1.033845
        11        10         9        16     9      180.000000        1.423324         2    ;  uncertainty k = 1.181232
        11        10         9        16     9        0.000000        0.860226         3    ;  uncertainty k = 0.332034
        11        10         9        16     9      180.000000        0.010765         4    ;  uncertainty k = 0.168708
        11        12        13        14     9        0.000000       -0.577894         1    ;  uncertainty k = 0.965263
        11        12        13        14     9      180.000000        0.209543         2    ;  uncertainty k = 0.707884
        11        12        13        14     9        0.000000        0.796577         3    ;  uncertainty k = 0.216244
        11        12        13        14     9      180.000000        0.149599         4    ;  uncertainty k = 0.256658
        11        12        13        17     9        0.000000       -0.001242         1    ;  uncertainty k = 0.762793
        11        12        13        17     9      180.000000       -0.516357         2    ;  uncertainty k = 0.370677
        11        12        13        17     9        0.000000        0.219803         3    ;  uncertainty k = 0.311606
        11        12        13        17     9      180.000000        0.748525         4    ;  uncertainty k = 0.143676
        11        15        14        13     9        0.000000       -0.756384         1    ;  uncertainty k = 0.691038
        11        15        14        13     9      180.000000        5.856437         2    ;  uncertainty k = 0.964493
        11        15        14        13     9        0.000000        0.445306         3    ;  uncertainty k = 0.293243
        11        15        14        13     9      180.000000       -1.144824         4    ;  uncertainty k = 0.220768
        11        15        14        43     9        0.000000        0.480411         1    ;  uncertainty k = 0.492791
        11        15        14        43     9      180.000000       -1.104496         2    ;  uncertainty k = 0.672329
        11        15        14        43     9        0.000000       -0.270073         3    ;  uncertainty k = 0.170671
        11        15        14        43     9      180.000000       -0.013160         4    ;  uncertainty k = 0.174221
        11        15        14        44     9        0.000000        0.480411         1    ;  uncertainty k = 0.492791
        11        15        14        44     9      180.000000       -1.104496         2    ;  uncertainty k = 0.672329
        11        15        14        44     9        0.000000       -0.270073         3    ;  uncertainty k = 0.170671
        11        15        14        44     9      180.000000       -0.013160         4    ;  uncertainty k = 0.174221
        11        15        16        46     9        0.000000        0.646621         1    ;  uncertainty k = 0.517783
        11        15        16        46     9      180.000000       -1.099688         2    ;  uncertainty k = 0.743824
        11        15        16        46     9        0.000000       -0.334779         3    ;  uncertainty k = 0.213643
        11        15        16        46     9      180.000000       -0.018734         4    ;  uncertainty k = 0.206092
        11        15        16        47     9        0.000000        0.646621         1    ;  uncertainty k = 0.517783
        11        15        16        47     9      180.000000       -1.099688         2    ;  uncertainty k = 0.743824
        11        15        16        47     9        0.000000       -0.334779         3    ;  uncertainty k = 0.213643
        11        15        16        47     9      180.000000       -0.018734         4    ;  uncertainty k = 0.206092
        12        11        10        38     9        0.000000       -0.670734         1    ;  uncertainty k = 0.233995
        12        11        10        38     9      180.000000       -0.386310         2    ;  uncertainty k = 0.258590
        12        11        10        38     9        0.000000        0.557637         3    ;  uncertainty k = 0.179621
        12        11        10        38     9      180.000000       -0.081826         4    ;  uncertainty k = 0.095492
        12        11        10        39     9        0.000000       -0.670734         1    ;  uncertainty k = 0.233995
        12        11        10        39     9      180.000000       -0.386310         2    ;  uncertainty k = 0.258590
        12        11        10        39     9        0.000000        0.557637         3    ;  uncertainty k = 0.179621
        12        11        10        39     9      180.000000       -0.081826         4    ;  uncertainty k = 0.095492
        12        11        15        14     9        0.000000       -3.717091         1    ;  uncertainty k = 0.646014
        12        11        15        14     9      180.000000        0.952705         2    ;  uncertainty k = 0.984304
        12        11        15        14     9        0.000000        1.178983         3    ;  uncertainty k = 0.499657
        12        11        15        14     9      180.000000       -0.410261         4    ;  uncertainty k = 0.338854
        12        11        15        16     9        0.000000       -3.847151         1    ;  uncertainty k = 0.842082
        12        11        15        16     9      180.000000        0.994504         2    ;  uncertainty k = 1.017625
        12        11        15        16     9        0.000000        1.189094         3    ;  uncertainty k = 0.581588
        12        11        15        16     9      180.000000       -0.416044         4    ;  uncertainty k = 0.334399
        12        11        15        45     9        0.000000       -1.291634         1    ;  uncertainty k = 0.560343
        12        11        15        45     9      180.000000        0.594321         2    ;  uncertainty k = 0.368266
        12        11        15        45     9        0.000000        1.030260         3    ;  uncertainty k = 0.246250
        12        11        15        45     9      180.000000        0.081405         4    ;  uncertainty k = 0.059901
        12        13        14        15     9        0.000000       -0.577894         1    ;  uncertainty k = 0.965264
        12        13        14        15     9      180.000000        0.209542         2    ;  uncertainty k = 0.707883
        12        13        14        15     9        0.000000        0.796577         3    ;  uncertainty k = 0.216244
        12        13        14        15     9      180.000000        0.149599         4    ;  uncertainty k = 0.256658
        12        13        14        43     9        0.000000       -1.853142         1    ;  uncertainty k = 0.582033
        12        13        14        43     9      180.000000        1.033698         2    ;  uncertainty k = 0.450442
        12        13        14        43     9        0.000000        1.252345         3    ;  uncertainty k = 0.140560
        12        13        14        43     9      180.000000        0.292848         4    ;  uncertainty k = 0.121326
        12        13        14        44     9        0.000000       -1.853142         1    ;  uncertainty k = 0.582033
        12        13        14        44     9      180.000000        1.033698         2    ;  uncertainty k = 0.450442
        12        13        14        44     9        0.000000        1.252345         3    ;  uncertainty k = 0.140560
        12        13        14        44     9      180.000000        0.292848         4    ;  uncertainty k = 0.121326
        12        13        17        18     9        0.000000        5.940362         1    ;  uncertainty k = 0.416589
        12        13        17        18     9      180.000000       16.834066         2    ;  uncertainty k = 0.202729
        12        13        17        18     9        0.000000        0.229463         3    ;  uncertainty k = 0.144941
        12        13        17        18     9      180.000000       -1.072993         4    ;  uncertainty k = 0.132508
        12        13        17        19     9        0.000000        3.554869         1    ;  uncertainty k = 1.266142
        12        13        17        19     9      180.000000        8.404799         2    ;  uncertainty k = 0.381464
        12        13        17        19     9        0.000000        1.734293         3    ;  uncertainty k = 0.380771
        12        13        17        19     9      180.000000        0.025183         4    ;  uncertainty k = 0.217278
        13        12        11        15     9        0.000000       -0.756383         1    ;  uncertainty k = 0.691039
        13        12        11        15     9      180.000000        5.856438         2    ;  uncertainty k = 0.964489
        13        12        11        15     9        0.000000        0.445306         3    ;  uncertainty k = 0.293243
        13        12        11        15     9      180.000000       -1.144824         4    ;  uncertainty k = 0.220768
        13        12        11        40     9        0.000000        0.134769         1    ;  uncertainty k = 0.685952
        13        12        11        40     9      180.000000        0.831761         2    ;  uncertainty k = 0.416184
        13        12        11        40     9        0.000000        1.099682         3    ;  uncertainty k = 0.160463
        13        12        11        40     9      180.000000       -0.068376         4    ;  uncertainty k = 0.100460
        13        14        15        16     9        0.000000       -2.553641         1    ;  uncertainty k = 1.026052
        13        14        15        16     9      180.000000       -0.018662         2    ;  uncertainty k = 0.745823
        13        14        15        16     9        0.000000        1.607209         3    ;  uncertainty k = 0.236202
        13        14        15        16     9      180.000000       -0.188588         4    ;  uncertainty k = 0.120204
        13        14        15        45     9        0.000000        0.134769         1    ;  uncertainty k = 0.685952
        13        14        15        45     9      180.000000        0.831760         2    ;  uncertainty k = 0.416184
        13        14        15        45     9        0.000000        1.099681         3    ;  uncertainty k = 0.160462
        13        14        15        45     9      180.000000       -0.068376         4    ;  uncertainty k = 0.100460
        13        17        19        20     9        0.000000        2.281714         1    ;  uncertainty k = 1.015208
        13        17        19        20     9      180.000000        5.065327         2    ;  uncertainty k = 0.420213
        13        17        19        20     9        0.000000        0.322922         3    ;  uncertainty k = 0.195979
        13        17        19        20     9      180.000000        0.325071         4    ;  uncertainty k = 0.139939
        13        17        19        25     9        0.000000        2.723577         1    ;  uncertainty k = 0.979268
        13        17        19        25     9      180.000000        5.529573         2    ;  uncertainty k = 0.323815
        13        17        19        25     9        0.000000       -0.085429         3    ;  uncertainty k = 0.121007
        13        17        19        25     9      180.000000        0.446636         4    ;  uncertainty k = 0.154529
        14        13        12        41     9        0.000000       -1.853141         1    ;  uncertainty k = 0.582034
        14        13        12        41     9      180.000000        1.033695         2    ;  uncertainty k = 0.450442
        14        13        12        41     9        0.000000        1.252346         3    ;  uncertainty k = 0.140560
        14        13        12        41     9      180.000000        0.292848         4    ;  uncertainty k = 0.121326
        14        13        12        42     9        0.000000       -1.853141         1    ;  uncertainty k = 0.582034
        14        13        12        42     9      180.000000        1.033695         2    ;  uncertainty k = 0.450442
        14        13        12        42     9        0.000000        1.252346         3    ;  uncertainty k = 0.140560
        14        13        12        42     9      180.000000        0.292848         4    ;  uncertainty k = 0.121326
        14        13        17        18     9        0.000000        5.940364         1    ;  uncertainty k = 0.416589
        14        13        17        18     9      180.000000       16.834072         2    ;  uncertainty k = 0.202728
        14        13        17        18     9        0.000000        0.229464         3    ;  uncertainty k = 0.144941
        14        13        17        18     9      180.000000       -1.072994         4    ;  uncertainty k = 0.132508
        14        13        17        19     9        0.000000        3.554870         1    ;  uncertainty k = 1.266142
        14        13        17        19     9      180.000000        8.404799         2    ;  uncertainty k = 0.381466
        14        13        17        19     9        0.000000        1.734292         3    ;  uncertainty k = 0.380770
        14        13        17        19     9      180.000000        0.025183         4    ;  uncertainty k = 0.217278
        14        15        11        40     9        0.000000       -1.291633         1    ;  uncertainty k = 0.560343
        14        15        11        40     9      180.000000        0.594321         2    ;  uncertainty k = 0.368268
        14        15        11        40     9        0.000000        1.030260         3    ;  uncertainty k = 0.246250
        14        15        11        40     9      180.000000        0.081405         4    ;  uncertainty k = 0.059900
        14        15        16        46     9        0.000000       -0.670733         1    ;  uncertainty k = 0.233996
        14        15        16        46     9      180.000000       -0.386309         2    ;  uncertainty k = 0.258591
        14        15        16        46     9        0.000000        0.557638         3    ;  uncertainty k = 0.179621
        14        15        16        46     9      180.000000       -0.081826         4    ;  uncertainty k = 0.095492
        14        15        16        47     9        0.000000       -0.670733         1    ;  uncertainty k = 0.233996
        14        15        16        47     9      180.000000       -0.386309         2    ;  uncertainty k = 0.258591
        14        15        16        47     9        0.000000        0.557638         3    ;  uncertainty k = 0.179621
        14        15        16        47     9      180.000000       -0.081826         4    ;  uncertainty k = 0.095492
        15        11        10        38     9        0.000000        0.646621         1    ;  uncertainty k = 0.517781
        15        11        10        38     9      180.000000       -1.099689         2    ;  uncertainty k = 0.743823
        15        11        10        38     9        0.000000       -0.334778         3    ;  uncertainty k = 0.213644
        15        11        10        38     9      180.000000       -0.018734         4    ;  uncertainty k = 0.206091
        15        11        10        39     9        0.000000        0.646621         1    ;  uncertainty k = 0.517781
        15        11        10        39     9      180.000000       -1.099689         2    ;  uncertainty k = 0.743823
        15        11        10        39     9        0.000000       -0.334778         3    ;  uncertainty k = 0.213644
        15        11        10        39     9      180.000000       -0.018734         4    ;  uncertainty k = 0.206091
        15        11        12        41     9        0.000000        0.480411         1    ;  uncertainty k = 0.492791
        15        11        12        41     9      180.000000       -1.104495         2    ;  uncertainty k = 0.672328
        15        11        12        41     9        0.000000       -0.270073         3    ;  uncertainty k = 0.170671
        15        11        12        41     9      180.000000       -0.013161         4    ;  uncertainty k = 0.174221
        15        11        12        42     9        0.000000        0.480411         1    ;  uncertainty k = 0.492791
        15        11        12        42     9      180.000000       -1.104495         2    ;  uncertainty k = 0.672328
        15        11        12        42     9        0.000000       -0.270073         3    ;  uncertainty k = 0.170671
        15        11        12        42     9      180.000000       -0.013161         4    ;  uncertainty k = 0.174221
        15        14        13        17     9        0.000000       -0.001242         1    ;  uncertainty k = 0.762794
        15        14        13        17     9      180.000000       -0.516358         2    ;  uncertainty k = 0.370675
        15        14        13        17     9        0.000000        0.219803         3    ;  uncertainty k = 0.311605
        15        14        13        17     9      180.000000        0.748526         4    ;  uncertainty k = 0.143677
        16         9        10        38     9        0.000000       -2.106814         1    ;  uncertainty k = 0.722683
        16         9        10        38     9      180.000000        1.271154         2    ;  uncertainty k = 0.391419
        16         9        10        38     9        0.000000        1.144989         3    ;  uncertainty k = 0.081016
        16         9        10        38     9      180.000000        0.249969         4    ;  uncertainty k = 0.124009
        16         9        10        39     9        0.000000       -2.106814         1    ;  uncertainty k = 0.722683
        16         9        10        39     9      180.000000        1.271154         2    ;  uncertainty k = 0.391419
        16         9        10        39     9        0.000000        1.144989         3    ;  uncertainty k = 0.081016
        16         9        10        39     9      180.000000        0.249969         4    ;  uncertainty k = 0.124009
        16        15        11        40     9        0.000000       -1.223110         1    ;  uncertainty k = 0.611378
        16        15        11        40     9      180.000000        0.489635         2    ;  uncertainty k = 0.414979
        16        15        11        40     9        0.000000        0.997353         3    ;  uncertainty k = 0.241669
        16        15        11        40     9      180.000000        0.066778         4    ;  uncertainty k = 0.087125
        16        15        14        43     9        0.000000       -0.498818         1    ;  uncertainty k = 0.107248
        16        15        14        43     9      180.000000       -0.409705         2    ;  uncertainty k = 0.197166
        16        15        14        43     9        0.000000        0.564544         3    ;  uncertainty k = 0.186998
        16        15        14        43     9      180.000000       -0.072177         4    ;  uncertainty k = 0.062323
        16        15        14        44     9        0.000000       -0.498818         1    ;  uncertainty k = 0.107248
        16        15        14        44     9      180.000000       -0.409705         2    ;  uncertainty k = 0.197166
        16        15        14        44     9        0.000000        0.564544         3    ;  uncertainty k = 0.186998
        16        15        14        44     9      180.000000       -0.072177         4    ;  uncertainty k = 0.062323
        17        13        12        41     9        0.000000        1.362871         1    ;  uncertainty k = 0.713293
        17        13        12        41     9      180.000000        0.136655         2    ;  uncertainty k = 0.114243
        17        13        12        41     9        0.000000        0.029726         3    ;  uncertainty k = 0.107702
        17        13        12        41     9      180.000000        0.264823         4    ;  uncertainty k = 0.056335
        17        13        12        42     9        0.000000        1.362871         1    ;  uncertainty k = 0.713293
        17        13        12        42     9      180.000000        0.136655         2    ;  uncertainty k = 0.114243
        17        13        12        42     9        0.000000        0.029726         3    ;  uncertainty k = 0.107702
        17        13        12        42     9      180.000000        0.264823         4    ;  uncertainty k = 0.056335
        17        13        14        43     9        0.000000        1.362872         1    ;  uncertainty k = 0.713294
        17        13        14        43     9      180.000000        0.136656         2    ;  uncertainty k = 0.114243
        17        13        14        43     9        0.000000        0.029726         3    ;  uncertainty k = 0.107702
        17        13        14        43     9      180.000000        0.264823         4    ;  uncertainty k = 0.056335
        17        13        14        44     9        0.000000        1.362872         1    ;  uncertainty k = 0.713294
        17        13        14        44     9      180.000000        0.136656         2    ;  uncertainty k = 0.114243
        17        13        14        44     9        0.000000        0.029726         3    ;  uncertainty k = 0.107702
        17        13        14        44     9      180.000000        0.264823         4    ;  uncertainty k = 0.056335
        17        19        20        21     9        0.000000        0.173315         1    ;  uncertainty k = 0.333505
        17        19        20        21     9      180.000000        9.679624         2    ;  uncertainty k = 0.979442
        17        19        20        21     9        0.000000        1.402455         3    ;  uncertainty k = 0.284418
        17        19        20        21     9      180.000000        1.998410         4    ;  uncertainty k = 0.393200
        17        19        20        48     9        0.000000        0.131675         1    ;  uncertainty k = 0.423441
        17        19        20        48     9      180.000000        8.475635         2    ;  uncertainty k = 0.577932
        17        19        20        48     9        0.000000        0.904870         3    ;  uncertainty k = 0.268005
        17        19        20        48     9      180.000000        1.379828         4    ;  uncertainty k = 0.260235
        17        19        25        24     9        0.000000        0.225299         1    ;  uncertainty k = 0.221954
        17        19        25        24     9      180.000000        6.575121         2    ;  uncertainty k = 0.363395
        17        19        25        24     9        0.000000        1.328469         3    ;  uncertainty k = 0.217319
        17        19        25        24     9      180.000000        1.702704         4    ;  uncertainty k = 0.190260
        17        19        25        26     9        0.000000       -0.193645         1    ;  uncertainty k = 0.986105
        17        19        25        26     9      180.000000        9.759357         2    ;  uncertainty k = 0.628310
        17        19        25        26     9        0.000000        1.331762         3    ;  uncertainty k = 0.458911
        17        19        25        26     9      180.000000        1.237986         4    ;  uncertainty k = 0.389784
        18        17        19        20     9        0.000000       -2.036696         1    ;  uncertainty k = 0.490775
        18        17        19        20     9      180.000000        4.242682         2    ;  uncertainty k = 0.409928
        18        17        19        20     9        0.000000        0.513947         3    ;  uncertainty k = 0.149055
        18        17        19        20     9      180.000000        0.389161         4    ;  uncertainty k = 0.136814
        18        17        19        25     9        0.000000       -4.951029         1    ;  uncertainty k = 1.254682
        18        17        19        25     9      180.000000        5.446839         2    ;  uncertainty k = 0.505129
        18        17        19        25     9        0.000000        0.488189         3    ;  uncertainty k = 0.439005
        18        17        19        25     9      180.000000        0.529515         4    ;  uncertainty k = 0.246924
        19        20        21        22     9        0.000000       -0.178478         1    ;  uncertainty k = 0.290628
        19        20        21        22     9      180.000000        8.674695         2    ;  uncertainty k = 0.252693
        19        20        21        22     9        0.000000        1.351792         3    ;  uncertainty k = 0.298895
        19        20        21        22     9      180.000000        1.640916         4    ;  uncertainty k = 0.199045
        19        20        21        23     9        0.000000       -0.178815         1    ;  uncertainty k = 0.277030
        19        20        21        23     9      180.000000        9.233599         2    ;  uncertainty k = 0.635639
        19        20        21        23     9        0.000000       -0.071868         3    ;  uncertainty k = 0.333696
        19        20        21        23     9      180.000000        1.228383         4    ;  uncertainty k = 0.420394
        19        25        24        23     9        0.000000       -0.264423         1    ;  uncertainty k = 0.446629
        19        25        24        23     9      180.000000        9.278061         2    ;  uncertainty k = 0.612393
        19        25        24        23     9        0.000000        0.310674         3    ;  uncertainty k = 0.150079
        19        25        24        23     9      180.000000        1.296322         4    ;  uncertainty k = 0.374486
        19        25        24        50     9        0.000000       -0.042044         1    ;  uncertainty k = 0.266830
        19        25        24        50     9      180.000000        6.311507         2    ;  uncertainty k = 0.392067
        19        25        24        50     9        0.000000        1.149241         3    ;  uncertainty k = 0.159011
        19        25        24        50     9      180.000000        1.592212         4    ;  uncertainty k = 0.229512
        19        25        26        27     9        0.000000       -1.019011         1    ;  uncertainty k = 0.902699
        19        25        26        27     9      180.000000        3.924391         2    ;  uncertainty k = 0.294405
        19        25        26        27     9        0.000000        0.688433         3    ;  uncertainty k = 0.263328
        19        25        26        27     9      180.000000       -0.098776         4    ;  uncertainty k = 0.154714
        19        25        26        30     9        0.000000       -1.019011         1    ;  uncertainty k = 0.902699
        19        25        26        30     9      180.000000        3.924391         2    ;  uncertainty k = 0.294405
        19        25        26        30     9        0.000000        0.688433         3    ;  uncertainty k = 0.263328
        19        25        26        30     9      180.000000       -0.098776         4    ;  uncertainty k = 0.154714
        20        19        25        24     9        0.000000       -0.822434         1    ;  uncertainty k = 0.706415
        20        19        25        24     9      180.000000        6.720460         2    ;  uncertainty k = 0.735917
        20        19        25        24     9        0.000000        0.088460         3    ;  uncertainty k = 0.392671
        20        19        25        24     9      180.000000        1.184298         4    ;  uncertainty k = 0.199382
        20        19        25        26     9        0.000000        0.462789         1    ;  uncertainty k = 0.395827
        20        19        25        26     9      180.000000        9.629884         2    ;  uncertainty k = 0.409373
        20        19        25        26     9        0.000000        1.224826         3    ;  uncertainty k = 0.245688
        20        19        25        26     9      180.000000        1.498522         4    ;  uncertainty k = 0.220146
        20        21        23        24     9        0.000000        0.026830         1    ;  uncertainty k = 0.169764
        20        21        23        24     9      180.000000        9.957238         2    ;  uncertainty k = 0.168622
        20        21        23        24     9        0.000000       -0.363998         3    ;  uncertainty k = 0.388439
        20        21        23        24     9      180.000000        1.034123         4    ;  uncertainty k = 0.321329
        20        21        23        49     9        0.000000       -0.047815         1    ;  uncertainty k = 0.189557
        20        21        23        49     9      180.000000        6.165267         2    ;  uncertainty k = 0.429520
        20        21        23        49     9        0.000000        1.311697         3    ;  uncertainty k = 0.359293
        20        21        23        49     9      180.000000        1.459985         4    ;  uncertainty k = 0.172902
        21        20        19        25     9        0.000000       -0.241161         1    ;  uncertainty k = 0.339593
        21        20        19        25     9      180.000000       10.450834         2    ;  uncertainty k = 0.438862
        21        20        19        25     9        0.000000        0.267181         3    ;  uncertainty k = 0.203932
        21        20        19        25     9      180.000000        1.346046         4    ;  uncertainty k = 0.391811
        21        23        24        25     9        0.000000       -0.071464         1    ;  uncertainty k = 0.263634
        21        23        24        25     9      180.000000       13.152671         2    ;  uncertainty k = 0.192858
        21        23        24        25     9        0.000000       -0.864742         3    ;  uncertainty k = 0.449478
        21        23        24        25     9      180.000000        0.990344         4    ;  uncertainty k = 0.214592
        21        23        24        50     9        0.000000       -0.039421         1    ;  uncertainty k = 0.136434
        21        23        24        50     9      180.000000        7.866927         2    ;  uncertainty k = 0.480229
        21        23        24        50     9        0.000000        1.286242         3    ;  uncertainty k = 0.243703
        21        23        24        50     9      180.000000        1.871948         4    ;  uncertainty k = 0.205351
        22        21        20        48     9        0.000000       -0.142017         1    ;  uncertainty k = 0.403349
        22        21        20        48     9      180.000000        7.427519         2    ;  uncertainty k = 0.297179
        22        21        20        48     9        0.000000        0.600297         3    ;  uncertainty k = 0.269881
        22        21        20        48     9      180.000000        1.012327         4    ;  uncertainty k = 0.167711
        22        21        23        24     9        0.000000        0.045754         1    ;  uncertainty k = 0.122649
        22        21        23        24     9      180.000000        9.177953         2    ;  uncertainty k = 0.616307
        22        21        23        24     9        0.000000        1.602771         3    ;  uncertainty k = 0.286827
        22        21        23        24     9      180.000000        1.617113         4    ;  uncertainty k = 0.156473
        22        21        23        49     9        0.000000       -0.138595         1    ;  uncertainty k = 0.229131
        22        21        23        49     9      180.000000        7.362599         2    ;  uncertainty k = 0.258288
        22        21        23        49     9        0.000000        0.592006         3    ;  uncertainty k = 0.335407
        22        21        23        49     9      180.000000        0.884379         4    ;  uncertainty k = 0.177497
        23        21        20        48     9        0.000000        0.017086         1    ;  uncertainty k = 0.276489
        23        21        20        48     9      180.000000        6.281805         2    ;  uncertainty k = 0.537653
        23        21        20        48     9        0.000000        1.291411         3    ;  uncertainty k = 0.318399
        23        21        20        48     9      180.000000        1.596317         4    ;  uncertainty k = 0.186273
        23        24        25        26     9        0.000000        0.399107         1    ;  uncertainty k = 0.437241
        23        24        25        26     9      180.000000       11.065225         2    ;  uncertainty k = 0.333997
        23        24        25        26     9        0.000000        1.004898         3    ;  uncertainty k = 0.237704
        23        24        25        26     9      180.000000        1.632946         4    ;  uncertainty k = 0.171146
        24        25        26        27     9        0.000000        2.481636         1    ;  uncertainty k = 0.877887
        24        25        26        27     9      180.000000        4.092435         2    ;  uncertainty k = 0.300319
        24        25        26        27     9        0.000000        0.349901         3    ;  uncertainty k = 0.187326
        24        25        26        27     9      180.000000        0.068134         4    ;  uncertainty k = 0.122114
        24        25        26        30     9        0.000000        2.481636         1    ;  uncertainty k = 0.877887
        24        25        26        30     9      180.000000        4.092435         2    ;  uncertainty k = 0.300319
        24        25        26        30     9        0.000000        0.349901         3    ;  uncertainty k = 0.187326
        24        25        26        30     9      180.000000        0.068134         4    ;  uncertainty k = 0.122114
        25        19        20        48     9        0.000000        0.061313         1    ;  uncertainty k = 0.359865
        25        19        20        48     9      180.000000        7.785302         2    ;  uncertainty k = 0.499190
        25        19        20        48     9        0.000000        1.157307         3    ;  uncertainty k = 0.117705
        25        19        20        48     9      180.000000        1.663188         4    ;  uncertainty k = 0.190563
        25        24        23        49     9        0.000000        0.061887         1    ;  uncertainty k = 0.277706
        25        24        23        49     9      180.000000        8.215529         2    ;  uncertainty k = 0.533333
        25        24        23        49     9        0.000000        1.204844         3    ;  uncertainty k = 0.217801
        25        24        23        49     9      180.000000        1.735577         4    ;  uncertainty k = 0.140955
        25        26        27        28     9        0.000000        0.801206         1    ;  uncertainty k = 2.524921
        25        26        27        28     9      180.000000       14.272159         2    ;  uncertainty k = 0.430815
        25        26        27        28     9        0.000000        1.376451         3    ;  uncertainty k = 0.510507
        25        26        27        28     9      180.000000        0.097805         4    ;  uncertainty k = 0.208955
        25        26        30        29     9        0.000000        0.801206         1    ;  uncertainty k = 2.524921
        25        26        30        29     9      180.000000       14.272159         2    ;  uncertainty k = 0.430815
        25        26        30        29     9        0.000000        1.376451         3    ;  uncertainty k = 0.510507
        25        26        30        29     9      180.000000        0.097805         4    ;  uncertainty k = 0.208955
        26        25        24        50     9        0.000000        0.147538         1    ;  uncertainty k = 0.487043
        26        25        24        50     9      180.000000        8.393269         2    ;  uncertainty k = 0.282021
        26        25        24        50     9        0.000000        0.828851         3    ;  uncertainty k = 0.167631
        26        25        24        50     9      180.000000        1.355468         4    ;  uncertainty k = 0.169267
        26        27        28        29     9        0.000000        0.018497         1    ;  uncertainty k = 0.518320
        26        27        28        29     9      180.000000       24.366317         2    ;  uncertainty k = 0.356973
        26        27        28        29     9        0.000000       -9.743427         3    ;  uncertainty k = 1.822103
        26        27        28        29     9      180.000000        2.415356         4    ;  uncertainty k = 0.669504
        26        27        28        51     9        0.000000        0.242617         1    ;  uncertainty k = 0.727374
        26        27        28        51     9      180.000000       22.022102         2    ;  uncertainty k = 0.478026
        26        27        28        51     9        0.000000        1.424783         3    ;  uncertainty k = 0.389502
        26        27        28        51     9      180.000000        1.215300         4    ;  uncertainty k = 0.593752
        26        30        29        28     9        0.000000        0.018497         1    ;  uncertainty k = 0.518320
        26        30        29        28     9      180.000000       24.366317         2    ;  uncertainty k = 0.356973
        26        30        29        28     9        0.000000       -9.743427         3    ;  uncertainty k = 1.822103
        26        30        29        28     9      180.000000        2.415356         4    ;  uncertainty k = 0.669504
        26        30        29        52     9        0.000000        0.242617         1    ;  uncertainty k = 0.727374
        26        30        29        52     9      180.000000       22.022102         2    ;  uncertainty k = 0.478026
        26        30        29        52     9        0.000000        1.424783         3    ;  uncertainty k = 0.389502
        26        30        29        52     9      180.000000        1.215300         4    ;  uncertainty k = 0.593752
        27        26        30        29     9        0.000000       -0.812639         1    ;  uncertainty k = 0.740782
        27        26        30        29     9      180.000000       22.007266         2    ;  uncertainty k = 0.259740
        27        26        30        29     9        0.000000       -8.239640         3    ;  uncertainty k = 1.249764
        27        26        30        29     9      180.000000        1.306014         4    ;  uncertainty k = 0.609846
        27        28        29        30     9        0.000000       -0.480158         1    ;  uncertainty k = 0.926462
        27        28        29        30     9      180.000000       16.735216         2    ;  uncertainty k = 1.309662
        27        28        29        30     9        0.000000      -12.155219         3    ;  uncertainty k = 1.939945
        27        28        29        30     9      180.000000        1.991293         4    ;  uncertainty k = 0.750423
        27        28        29        52     9        0.000000        0.154897         1    ;  uncertainty k = 0.970262
        27        28        29        52     9      180.000000       11.842300         2    ;  uncertainty k = 0.614370
        27        28        29        52     9        0.000000        0.922189         3    ;  uncertainty k = 0.757887
        27        28        29        52     9      180.000000        0.630945         4    ;  uncertainty k = 0.172002
        28        27        26        30     9        0.000000       -0.812639         1    ;  uncertainty k = 0.740782
        28        27        26        30     9      180.000000       22.007266         2    ;  uncertainty k = 0.259740
        28        27        26        30     9        0.000000       -8.239640         3    ;  uncertainty k = 1.249764
        28        27        26        30     9      180.000000        1.306014         4    ;  uncertainty k = 0.609846
        30        29        28        51     9        0.000000        0.154897         1    ;  uncertainty k = 0.970262
        30        29        28        51     9      180.000000       11.842300         2    ;  uncertainty k = 0.614370
        30        29        28        51     9        0.000000        0.922189         3    ;  uncertainty k = 0.757887
        30        29        28        51     9      180.000000        0.630945         4    ;  uncertainty k = 0.172002
        38        10        11        40     9        0.000000        0.359872         1    ;  uncertainty k = 0.316166
        38        10        11        40     9      180.000000       -0.360044         2    ;  uncertainty k = 0.197279
        38        10        11        40     9        0.000000        0.364903         3    ;  uncertainty k = 0.128583
        38        10        11        40     9      180.000000       -0.036803         4    ;  uncertainty k = 0.081429
        39        10        11        40     9        0.000000        0.359872         1    ;  uncertainty k = 0.316166
        39        10        11        40     9      180.000000       -0.360044         2    ;  uncertainty k = 0.197279
        39        10        11        40     9        0.000000        0.364903         3    ;  uncertainty k = 0.128583
        39        10        11        40     9      180.000000       -0.036803         4    ;  uncertainty k = 0.081429
        40        11        12        41     9        0.000000        0.423998         1    ;  uncertainty k = 0.297943
        40        11        12        41     9      180.000000       -0.322771         2    ;  uncertainty k = 0.253711
        40        11        12        41     9        0.000000        0.343158         3    ;  uncertainty k = 0.128710
        40        11        12        41     9      180.000000       -0.041305         4    ;  uncertainty k = 0.061986
        40        11        12        42     9        0.000000        0.423998         1    ;  uncertainty k = 0.297943
        40        11        12        42     9      180.000000       -0.322771         2    ;  uncertainty k = 0.253711
        40        11        12        42     9        0.000000        0.343158         3    ;  uncertainty k = 0.128710
        40        11        12        42     9      180.000000       -0.041305         4    ;  uncertainty k = 0.061986
        40        11        15        45     9        0.000000        3.534566         1    ;  uncertainty k = 1.183407
        40        11        15        45     9      180.000000       -0.219654         2    ;  uncertainty k = 0.641097
        40        11        15        45     9        0.000000        0.578188         3    ;  uncertainty k = 0.579178
        40        11        15        45     9      180.000000        0.212498         4    ;  uncertainty k = 0.291708
        43        14        15        45     9        0.000000        0.424000         1    ;  uncertainty k = 0.297943
        43        14        15        45     9      180.000000       -0.322771         2    ;  uncertainty k = 0.253710
        43        14        15        45     9        0.000000        0.343158         3    ;  uncertainty k = 0.128710
        43        14        15        45     9      180.000000       -0.041305         4    ;  uncertainty k = 0.061986
        44        14        15        45     9        0.000000        0.424000         1    ;  uncertainty k = 0.297943
        44        14        15        45     9      180.000000       -0.322771         2    ;  uncertainty k = 0.253710
        44        14        15        45     9        0.000000        0.343158         3    ;  uncertainty k = 0.128710
        44        14        15        45     9      180.000000       -0.041305         4    ;  uncertainty k = 0.061986
        45        15        16        46     9        0.000000        0.359873         1    ;  uncertainty k = 0.316165
        45        15        16        46     9      180.000000       -0.360044         2    ;  uncertainty k = 0.197281
        45        15        16        46     9        0.000000        0.364903         3    ;  uncertainty k = 0.128582
        45        15        16        46     9      180.000000       -0.036803         4    ;  uncertainty k = 0.081429
        45        15        16        47     9        0.000000        0.359873         1    ;  uncertainty k = 0.316165
        45        15        16        47     9      180.000000       -0.360044         2    ;  uncertainty k = 0.197281
        45        15        16        47     9        0.000000        0.364903         3    ;  uncertainty k = 0.128582
        45        15        16        47     9      180.000000       -0.036803         4    ;  uncertainty k = 0.081429
        49        23        24        50     9        0.000000       -0.008100         1    ;  uncertainty k = 0.121306
        49        23        24        50     9      180.000000        8.194289         2    ;  uncertainty k = 0.367596
        49        23        24        50     9        0.000000       -0.489311         3    ;  uncertainty k = 0.253673
        49        23        24        50     9      180.000000        0.196662         4    ;  uncertainty k = 0.172188
        51        28        29        52     9        0.000000       -0.942648         1    ;  uncertainty k = 1.117582
        51        28        29        52     9      180.000000        4.272735         2    ;  uncertainty k = 0.760818
        51        28        29        52     9        0.000000        1.314863         3    ;  uncertainty k = 0.353594
        51        28        29        52     9      180.000000        0.150448         4    ;  uncertainty k = 0.159865

[ dihedrals ] ; impropers
;       ai        aj        ak        al funct           phase               k        pn
         2         1         3         8     4      180.000000       31.911121         2    ;  uncertainty k = 0.074029
         2         3         8         1     4      180.000000       31.911121         2    ;  uncertainty k = 0.074029
         2         8         1         3     4      180.000000       31.911121         2    ;  uncertainty k = 0.074029
         3         2         4        34     4      180.000000        1.149575         2    ;  uncertainty k = 0.472328
         3         4        34         2     4      180.000000        1.149575         2    ;  uncertainty k = 0.472328
         3        34         2         4     4      180.000000        1.149575         2    ;  uncertainty k = 0.472328
         4         3         5         6     4      180.000000       31.911121         2    ;  uncertainty k = 0.074029
         4         5         6         3     4      180.000000       31.911121         2    ;  uncertainty k = 0.074029
         4         6         3         5     4      180.000000       31.911121         2    ;  uncertainty k = 0.074029
         7         6         8         9     4      180.000000       42.641368         2    ;  uncertainty k = 0.061085
         7         8         9         6     4      180.000000       42.641368         2    ;  uncertainty k = 0.061085
         7         9         6         8     4      180.000000       42.641368         2    ;  uncertainty k = 0.061085
         9         7        10        16     4      180.000000        0.056062         2    ;  uncertainty k = 0.081767
         9        10        16         7     4      180.000000        0.056062         2    ;  uncertainty k = 0.081767
         9        16         7        10     4      180.000000        0.056062         2    ;  uncertainty k = 0.081767
        17        13        18        19     4      180.000000       50.897321         2    ;  uncertainty k = 0.069096
        17        18        19        13     4      180.000000       50.897321         2    ;  uncertainty k = 0.069096
        17        19        13        18     4      180.000000       50.897321         2    ;  uncertainty k = 0.069096
        19        17        20        25     4      180.000000       11.034973         2    ;  uncertainty k = 0.184787
        19        20        25        17     4      180.000000       11.034973         2    ;  uncertainty k = 0.184787
        19        25        17        20     4      180.000000       11.034973         2    ;  uncertainty k = 0.184787
        20        19        21        48     4      180.000000        3.840290         2    ;  uncertainty k = 0.081985
        20        21        48        19     4      180.000000        3.840290         2    ;  uncertainty k = 0.081985
        20        48        19        21     4      180.000000        3.840290         2    ;  uncertainty k = 0.081985
        21        20        22        23     4      180.000000       13.030123         2    ;  uncertainty k = 0.108911
        21        22        23        20     4      180.000000       13.030123         2    ;  uncertainty k = 0.108911
        21        23        20        22     4      180.000000       13.030123         2    ;  uncertainty k = 0.108911
        23        21        24        49     4      180.000000        3.535619         2    ;  uncertainty k = 0.100309
        23        24        49        21     4      180.000000        3.535619         2    ;  uncertainty k = 0.100309
        23        49        21        24     4      180.000000        3.535619         2    ;  uncertainty k = 0.100309
        24        23        25        50     4      180.000000        3.541372         2    ;  uncertainty k = 0.108472
        24        25        50        23     4      180.000000        3.541372         2    ;  uncertainty k = 0.108472
        24        50        23        25     4      180.000000        3.541372         2    ;  uncertainty k = 0.108472
        25        19        24        26     4      180.000000       11.747508         2    ;  uncertainty k = 0.167282
        25        24        26        19     4      180.000000       11.747508         2    ;  uncertainty k = 0.167282
        25        26        19        24     4      180.000000       11.747508         2    ;  uncertainty k = 0.167282
        26        25        27        30     4      180.000000        0.043506         2    ;  uncertainty k = 0.097283
        26        27        30        25     4      180.000000        0.043506         2    ;  uncertainty k = 0.097283
        26        30        25        27     4      180.000000        0.043506         2    ;  uncertainty k = 0.097283
        28        27        29        51     4      180.000000        0.414726         2    ;  uncertainty k = 0.408832
        28        29        51        27     4      180.000000        0.414726         2    ;  uncertainty k = 0.408832
        28        51        27        29     4      180.000000        0.414726         2    ;  uncertainty k = 0.408832
        29        28        30        52     4      180.000000        0.414726         2    ;  uncertainty k = 0.408832
        29        30        52        28     4      180.000000        0.414726         2    ;  uncertainty k = 0.408832
        29        52        28        30     4      180.000000        0.414726         2    ;  uncertainty k = 0.408832

[ pairs ]
;       ai        aj funct
         1         4     1
         1         7     1
         1        34     1
         2         5     1
         2         6     1
         2         9     1
         3         7     1
         3        31     1
         3        32     1
         3        33     1
         3        35     1
         3        36     1
         3        37     1
         4         8     1
         4         9     1
         5         7     1
         5        34     1
         6        10     1
         6        16     1
         6        34     1
         6        35     1
         6        36     1
         6        37     1
         7        11     1
         7        15     1
         7        38     1
         7        39     1
         7        46     1
         7        47     1
         8        10     1
         8        16     1
         8        31     1
         8        32     1
         8        33     1
         8        34     1
         9        12     1
         9        14     1
         9        40     1
         9        45     1
        10        13     1
        10        14     1
        10        41     1
        10        42     1
        10        45     1
        10        46     1
        10        47     1
        11        17     1
        11        43     1
        11        44     1
        11        46     1
        11        47     1
        12        16     1
        12        18     1
        12        19     1
        12        38     1
        12        39     1
        12        43     1
        12        44     1
        12        45     1
        13        16     1
        13        20     1
        13        25     1
        13        40     1
        13        45     1
        14        18     1
        14        19     1
        14        40     1
        14        41     1
        14        42     1
        14        46     1
        14        47     1
        15        17     1
        15        38     1
        15        39     1
        15        41     1
        15        42     1
        16        38     1
        16        39     1
        16        40     1
        16        43     1
        16        44     1
        17        21     1
        17        24     1
        17        26     1
        17        41     1
        17        42     1
        17        43     1
        17        44     1
        17        48     1
        18        20     1
        18        25     1
        19        22     1
        19        23     1
        19        27     1
        19        30     1
        19        50     1
        20        24     1
        20        26     1
        20        49     1
        21        25     1
        21        50     1
        22        24     1
        22        48     1
        22        49     1
        23        26     1
        23        48     1
        24        27     1
        24        30     1
        25        28     1
        25        29     1
        25        48     1
        25        49     1
        26        50     1
        26        51     1
        26        52     1
        27        52     1
        30        51     1
        38        40     1
        39        40     1
        40        41     1
        40        42     1
        40        45     1
        43        45     1
        44        45     1
        45        46     1
        45        47     1
        49        50     1
        51        52     1
