; ITP file created by ByteFF-joint-25, 2025-07-14 11:28:33.717507

[ atomtypes ]
;name           bonded.type        at.num        mass        charge   ptype           sigma         epsilon
 c0bf                                   6      0.0000       0.00000       A     3.39778e-01     4.50932e-01    ;  uncertainty sigma = 0.000007, epsilon = 0.000628
 c1bf                                   6      0.0000       0.00000       A     3.31514e-01     4.13080e-01    ;  uncertainty sigma = 0.000014, epsilon = 0.000654
 c2bf                                   6      0.0000       0.00000       A     3.31518e-01     4.13163e-01    ;  uncertainty sigma = 0.000010, epsilon = 0.001284
 c3bf                                   6      0.0000       0.00000       A     3.31522e-01     4.13274e-01    ;  uncertainty sigma = 0.000017, epsilon = 0.000815
 n4bf                                   7      0.0000       0.00000       A     3.38473e-01     3.93895e-01    ;  uncertainty sigma = 0.000015, epsilon = 0.001966
 c5bf                                   6      0.0000       0.00000       A     3.31531e-01     4.13295e-01    ;  uncertainty sigma = 0.000018, epsilon = 0.000856
 n6bf                                   7      0.0000       0.00000       A     3.38409e-01     3.93562e-01    ;  uncertainty sigma = 0.000016, epsilon = 0.000711
 n7bf                                   7      0.0000       0.00000       A     3.18958e-01     8.99771e-01    ;  uncertainty sigma = 0.000046, epsilon = 0.003262
 c8bf                                   6      0.0000       0.00000       A     3.39774e-01     4.50953e-01    ;  uncertainty sigma = 0.000012, epsilon = 0.001229
 c9bf                                   6      0.0000       0.00000       A     3.39776e-01     4.51373e-01    ;  uncertainty sigma = 0.000009, epsilon = 0.000969
 c10bf                                  6      0.0000       0.00000       A     3.39784e-01     4.51219e-01    ;  uncertainty sigma = 0.000006, epsilon = 0.000696
 n11bf                                  7      0.0000       0.00000       A     3.18086e-01     6.84039e-01    ;  uncertainty sigma = 0.000014, epsilon = 0.001467
 c12bf                                  6      0.0000       0.00000       A     3.39784e-01     4.51219e-01    ;  uncertainty sigma = 0.000006, epsilon = 0.000696
 c13bf                                  6      0.0000       0.00000       A     3.39776e-01     4.51373e-01    ;  uncertainty sigma = 0.000009, epsilon = 0.000969
 c14bf                                  6      0.0000       0.00000       A     3.39774e-01     4.50953e-01    ;  uncertainty sigma = 0.000012, epsilon = 0.001229
 c15bf                                  6      0.0000       0.00000       A     3.31486e-01     4.13134e-01    ;  uncertainty sigma = 0.000026, epsilon = 0.002146
 o16bf                                  8      0.0000       0.00000       A     3.04851e-01     6.12019e-01    ;  uncertainty sigma = 0.000026, epsilon = 0.001020
 c17bf                                  6      0.0000       0.00000       A     3.31488e-01     4.12415e-01    ;  uncertainty sigma = 0.000034, epsilon = 0.001171
 c18bf                                  6      0.0000       0.00000       A     3.31513e-01     4.12834e-01    ;  uncertainty sigma = 0.000016, epsilon = 0.001291
 f19bf                                  9      0.0000       0.00000       A     3.03451e-01     3.47872e-01    ;  uncertainty sigma = 0.000029, epsilon = 0.000470
 c20bf                                  6      0.0000       0.00000       A     3.31522e-01     4.13335e-01    ;  uncertainty sigma = 0.000005, epsilon = 0.000662
 c21bf                                  6      0.0000       0.00000       A     3.31521e-01     4.13421e-01    ;  uncertainty sigma = 0.000006, epsilon = 0.000781
 c22bf                                  6      0.0000       0.00000       A     3.31510e-01     4.13240e-01    ;  uncertainty sigma = 0.000014, epsilon = 0.000923
 c23bf                                  6      0.0000       0.00000       A     3.31553e-01     4.13601e-01    ;  uncertainty sigma = 0.000013, epsilon = 0.001582
 n24bf                                  7      0.0000       0.00000       A     3.20569e-01     8.54049e-01    ;  uncertainty sigma = 0.000030, epsilon = 0.002792
 n25bf                                  7      0.0000       0.00000       A     3.38413e-01     3.93694e-01    ;  uncertainty sigma = 0.000010, epsilon = 0.000693
 c26bf                                  6      0.0000       0.00000       A     3.31537e-01     4.13587e-01    ;  uncertainty sigma = 0.000007, epsilon = 0.000835
 c27bf                                  6      0.0000       0.00000       A     3.31537e-01     4.13587e-01    ;  uncertainty sigma = 0.000007, epsilon = 0.000835
 n28bf                                  7      0.0000       0.00000       A     3.38413e-01     3.93694e-01    ;  uncertainty sigma = 0.000010, epsilon = 0.000693
 n29bf                                  7      0.0000       0.00000       A     3.18978e-01     9.00117e-01    ;  uncertainty sigma = 0.000016, epsilon = 0.002185
 c30bf                                  6      0.0000       0.00000       A     3.39786e-01     4.50929e-01    ;  uncertainty sigma = 0.000005, epsilon = 0.000641
 c31bf                                  6      0.0000       0.00000       A     3.39779e-01     4.50773e-01    ;  uncertainty sigma = 0.000007, epsilon = 0.000985
 o32bf                                  8      0.0000       0.00000       A     3.15603e-01     3.03546e-01    ;  uncertainty sigma = 0.000016, epsilon = 0.000957
 c33bf                                  6      0.0000       0.00000       A     3.39779e-01     4.50773e-01    ;  uncertainty sigma = 0.000007, epsilon = 0.000985
 c34bf                                  6      0.0000       0.00000       A     3.39786e-01     4.50929e-01    ;  uncertainty sigma = 0.000005, epsilon = 0.000641
 h35bf                                  1      0.0000       0.00000       A     2.60034e-01     8.66332e-02    ;  uncertainty sigma = 0.000007, epsilon = 0.000537
 h36bf                                  1      0.0000       0.00000       A     2.60034e-01     8.66332e-02    ;  uncertainty sigma = 0.000007, epsilon = 0.000537
 h37bf                                  1      0.0000       0.00000       A     2.60034e-01     8.66332e-02    ;  uncertainty sigma = 0.000007, epsilon = 0.000537
 h38bf                                  1      0.0000       0.00000       A     2.62544e-01     6.69490e-02    ;  uncertainty sigma = 0.000014, epsilon = 0.000631
 h39bf                                  1      0.0000       0.00000       A     2.42199e-01     8.66324e-02    ;  uncertainty sigma = 0.000024, epsilon = 0.001250
 h40bf                                  1      0.0000       0.00000       A     2.42199e-01     8.66324e-02    ;  uncertainty sigma = 0.000024, epsilon = 0.001250
 h41bf                                  1      0.0000       0.00000       A     2.59994e-01     8.68892e-02    ;  uncertainty sigma = 0.000026, epsilon = 0.000553
 h42bf                                  1      0.0000       0.00000       A     2.42194e-01     8.66543e-02    ;  uncertainty sigma = 0.000021, epsilon = 0.000863
 h43bf                                  1      0.0000       0.00000       A     2.42194e-01     8.66543e-02    ;  uncertainty sigma = 0.000021, epsilon = 0.000863
 h44bf                                  1      0.0000       0.00000       A     2.42194e-01     8.66545e-02    ;  uncertainty sigma = 0.000021, epsilon = 0.000863
 h45bf                                  1      0.0000       0.00000       A     2.42194e-01     8.66545e-02    ;  uncertainty sigma = 0.000021, epsilon = 0.000863
 h46bf                                  1      0.0000       0.00000       A     2.59994e-01     8.68892e-02    ;  uncertainty sigma = 0.000026, epsilon = 0.000553
 h47bf                                  1      0.0000       0.00000       A     2.42199e-01     8.66324e-02    ;  uncertainty sigma = 0.000024, epsilon = 0.001250
 h48bf                                  1      0.0000       0.00000       A     2.42199e-01     8.66324e-02    ;  uncertainty sigma = 0.000024, epsilon = 0.001250
 h49bf                                  1      0.0000       0.00000       A     2.62565e-01     6.70682e-02    ;  uncertainty sigma = 0.000010, epsilon = 0.000430
 h50bf                                  1      0.0000       0.00000       A     2.62565e-01     6.69658e-02    ;  uncertainty sigma = 0.000011, epsilon = 0.000532
 h51bf                                  1      0.0000       0.00000       A     2.62555e-01     6.71502e-02    ;  uncertainty sigma = 0.000013, epsilon = 0.000465
 h52bf                                  1      0.0000       0.00000       A     2.53604e-01     6.70805e-02    ;  uncertainty sigma = 0.000028, epsilon = 0.000600
 h53bf                                  1      0.0000       0.00000       A     2.53604e-01     6.70805e-02    ;  uncertainty sigma = 0.000028, epsilon = 0.000600
 h54bf                                  1      0.0000       0.00000       A     2.42217e-01     8.66130e-02    ;  uncertainty sigma = 0.000017, epsilon = 0.000541
 h55bf                                  1      0.0000       0.00000       A     2.42217e-01     8.66130e-02    ;  uncertainty sigma = 0.000017, epsilon = 0.000541
 h56bf                                  1      0.0000       0.00000       A     2.42206e-01     8.67496e-02    ;  uncertainty sigma = 0.000016, epsilon = 0.000767
 h57bf                                  1      0.0000       0.00000       A     2.42206e-01     8.67496e-02    ;  uncertainty sigma = 0.000016, epsilon = 0.000767
 h58bf                                  1      0.0000       0.00000       A     2.42206e-01     8.67496e-02    ;  uncertainty sigma = 0.000016, epsilon = 0.000767
 h59bf                                  1      0.0000       0.00000       A     2.42206e-01     8.67496e-02    ;  uncertainty sigma = 0.000016, epsilon = 0.000767
 h60bf                                  1      0.0000       0.00000       A     2.42217e-01     8.66131e-02    ;  uncertainty sigma = 0.000017, epsilon = 0.000541
 h61bf                                  1      0.0000       0.00000       A     2.42217e-01     8.66130e-02    ;  uncertainty sigma = 0.000017, epsilon = 0.000541

[ moleculetype ]
;name             nrexcl
 MOL                   3

[ atoms ]
;       nr            type      resi   res      atom      cgnr      charge          mass ; qtot
         1            c0bf         1   UNL        c0         1    -0.14952       12.0110 ; qtot   -0.150
         2            c1bf         1   UNL        c1         2     0.50297       12.0110 ; qtot    0.353
         3            c2bf         1   UNL        c2         3    -0.46087       12.0110 ; qtot   -0.107
         4            c3bf         1   UNL        c3         4     0.74619       12.0110 ; qtot    0.639
         5            n4bf         1   UNL        n4         5    -0.85323       14.0070 ; qtot   -0.214
         6            c5bf         1   UNL        c5         6     0.93305       12.0110 ; qtot    0.719
         7            n6bf         1   UNL        n6         7    -0.79889       14.0070 ; qtot   -0.080
         8            n7bf         1   UNL        n7         8    -0.79032       14.0070 ; qtot   -0.871
         9            c8bf         1   UNL        c8         9     0.23473       12.0110 ; qtot   -0.636
        10            c9bf         1   UNL        c9        10    -0.09743       12.0110 ; qtot   -0.733
        11           c10bf         1   UNL       c10        11     0.11057       12.0110 ; qtot   -0.623
        12           n11bf         1   UNL       n11        12    -0.47239       14.0070 ; qtot   -1.095
        13           c12bf         1   UNL       c12        13     0.11057       12.0110 ; qtot   -0.985
        14           c13bf         1   UNL       c13        14    -0.09743       12.0110 ; qtot   -1.082
        15           c14bf         1   UNL       c14        15     0.23473       12.0110 ; qtot   -0.847
        16           c15bf         1   UNL       c15        16     0.70764       12.0110 ; qtot   -0.140
        17           o16bf         1   UNL       o16        17    -0.58293       15.9990 ; qtot   -0.723
        18           c17bf         1   UNL       c17        18    -0.15596       12.0110 ; qtot   -0.879
        19           c18bf         1   UNL       c18        19     0.16292       12.0110 ; qtot   -0.716
        20           f19bf         1   UNL       f19        20    -0.13494       18.9980 ; qtot   -0.851
        21           c20bf         1   UNL       c20        21    -0.15817       12.0110 ; qtot   -1.009
        22           c21bf         1   UNL       c21        22    -0.08197       12.0110 ; qtot   -1.091
        23           c22bf         1   UNL       c22        23    -0.13048       12.0110 ; qtot   -1.221
        24           c23bf         1   UNL       c23        24     0.07222       12.0110 ; qtot   -1.149
        25           n24bf         1   UNL       n24        25     0.30201       14.0070 ; qtot   -0.847
        26           n25bf         1   UNL       n25        26    -0.47243       14.0070 ; qtot   -1.319
        27           c26bf         1   UNL       c26        27     0.20275       12.0110 ; qtot   -1.117
        28           c27bf         1   UNL       c27        28     0.20275       12.0110 ; qtot   -0.914
        29           n28bf         1   UNL       n28        29    -0.47243       14.0070 ; qtot   -1.386
        30           n29bf         1   UNL       n29        30    -0.79401       14.0070 ; qtot   -2.180
        31           c30bf         1   UNL       c30        31     0.18889       12.0110 ; qtot   -1.991
        32           c31bf         1   UNL       c31        32     0.11467       12.0110 ; qtot   -1.877
        33           o32bf         1   UNL       o32        33    -0.41207       15.9990 ; qtot   -2.289
        34           c33bf         1   UNL       c33        34     0.11467       12.0110 ; qtot   -2.174
        35           c34bf         1   UNL       c34        35     0.18889       12.0110 ; qtot   -1.985
        36           h35bf         1   UNL       h35        36     0.05835        1.0080 ; qtot   -1.927
        37           h36bf         1   UNL       h36        37     0.05835        1.0080 ; qtot   -1.869
        38           h37bf         1   UNL       h37        38     0.05835        1.0080 ; qtot   -1.810
        39           h38bf         1   UNL       h38        39     0.15208        1.0080 ; qtot   -1.658
        40           h39bf         1   UNL       h39        40     0.05891        1.0080 ; qtot   -1.599
        41           h40bf         1   UNL       h40        41     0.05891        1.0080 ; qtot   -1.540
        42           h41bf         1   UNL       h41        42     0.07237        1.0080 ; qtot   -1.468
        43           h42bf         1   UNL       h42        43     0.05981        1.0080 ; qtot   -1.408
        44           h43bf         1   UNL       h43        44     0.05981        1.0080 ; qtot   -1.348
        45           h44bf         1   UNL       h44        45     0.05981        1.0080 ; qtot   -1.289
        46           h45bf         1   UNL       h45        46     0.05981        1.0080 ; qtot   -1.229
        47           h46bf         1   UNL       h46        47     0.07237        1.0080 ; qtot   -1.156
        48           h47bf         1   UNL       h47        48     0.05891        1.0080 ; qtot   -1.097
        49           h48bf         1   UNL       h48        49     0.05891        1.0080 ; qtot   -1.039
        50           h49bf         1   UNL       h49        50     0.15846        1.0080 ; qtot   -0.880
        51           h50bf         1   UNL       h50        51     0.14574        1.0080 ; qtot   -0.734
        52           h51bf         1   UNL       h51        52     0.16350        1.0080 ; qtot   -0.571
        53           h52bf         1   UNL       h52        53     0.05496        1.0080 ; qtot   -0.516
        54           h53bf         1   UNL       h53        54     0.05496        1.0080 ; qtot   -0.461
        55           h54bf         1   UNL       h54        55     0.06060        1.0080 ; qtot   -0.400
        56           h55bf         1   UNL       h55        56     0.06060        1.0080 ; qtot   -0.340
        57           h56bf         1   UNL       h56        57     0.05461        1.0080 ; qtot   -0.285
        58           h57bf         1   UNL       h57        58     0.05461        1.0080 ; qtot   -0.230
        59           h58bf         1   UNL       h58        59     0.05461        1.0080 ; qtot   -0.176
        60           h59bf         1   UNL       h59        60     0.05461        1.0080 ; qtot   -0.121
        61           h60bf         1   UNL       h60        61     0.06060        1.0080 ; qtot   -0.061
        62           h61bf         1   UNL       h61        62     0.06064        1.0080 ; qtot   -0.000

[ bonds ]
;       ai        aj funct               r               k
         1         2     1        0.150620   256704.181934    ;  uncertainty r = 0.000055, k = 8.054465
         1        36     1        0.109441   310566.848730    ;  uncertainty r = 0.000014, k = 1.398276
         1        37     1        0.109441   310566.848730    ;  uncertainty r = 0.000014, k = 1.398276
         1        38     1        0.109441   310566.848730    ;  uncertainty r = 0.000014, k = 1.398276
         2         3     1        0.139994   487801.691406    ;  uncertainty r = 0.000096, k = 8.646628
         2         7     1        0.135009   461783.309668    ;  uncertainty r = 0.000156, k = 13.109616
         3         4     1        0.142197   428757.136523    ;  uncertainty r = 0.000033, k = 4.595350
         3        39     1        0.108823   348059.283545    ;  uncertainty r = 0.000047, k = 4.501196
         4         5     1        0.136259   462009.466309    ;  uncertainty r = 0.000231, k = 7.900041
         4        30     1        0.138551   299936.771582    ;  uncertainty r = 0.000118, k = 5.057482
         5         6     1        0.137014   463238.005566    ;  uncertainty r = 0.000227, k = 10.117815
         6         7     1        0.135758   486692.257227    ;  uncertainty r = 0.000145, k = 13.635040
         6         8     1        0.137213   313281.137012    ;  uncertainty r = 0.000091, k = 16.742917
         8         9     1        0.146375   223548.867627    ;  uncertainty r = 0.000061, k = 13.959971
         8        15     1        0.146375   223548.842090    ;  uncertainty r = 0.000061, k = 13.959944
         9        10     1        0.153378   218045.467334    ;  uncertainty r = 0.000067, k = 7.088220
         9        40     1        0.109551   306518.450781    ;  uncertainty r = 0.000069, k = 2.534282
         9        41     1        0.109551   306518.450781    ;  uncertainty r = 0.000069, k = 2.534282
        10        11     1        0.153480   216617.049121    ;  uncertainty r = 0.000023, k = 7.412723
        10        14     1        0.154451   200722.496875    ;  uncertainty r = 0.000080, k = 20.796785
        10        42     1        0.109350   305021.261133    ;  uncertainty r = 0.000029, k = 3.829702
        11        12     1        0.146976   241154.380664    ;  uncertainty r = 0.000047, k = 15.575172
        11        43     1        0.109439   307434.875488    ;  uncertainty r = 0.000026, k = 1.171544
        11        44     1        0.109439   307434.875488    ;  uncertainty r = 0.000026, k = 1.171544
        12        13     1        0.146976   241154.380664    ;  uncertainty r = 0.000047, k = 15.575144
        12        16     1        0.135088   335723.021045    ;  uncertainty r = 0.000166, k = 15.024462
        13        14     1        0.153480   216617.049121    ;  uncertainty r = 0.000023, k = 7.412681
        13        45     1        0.109439   307434.875488    ;  uncertainty r = 0.000026, k = 1.171521
        13        46     1        0.109439   307434.875488    ;  uncertainty r = 0.000026, k = 1.171521
        14        15     1        0.153378   218045.441797    ;  uncertainty r = 0.000067, k = 7.088228
        14        47     1        0.109350   305021.261133    ;  uncertainty r = 0.000029, k = 3.829660
        15        48     1        0.109551   306518.450781    ;  uncertainty r = 0.000069, k = 2.534287
        15        49     1        0.109551   306518.450781    ;  uncertainty r = 0.000069, k = 2.534287
        16        17     1        0.123492   739384.865723    ;  uncertainty r = 0.000039, k = 10.151716
        16        18     1        0.151093   272101.628809    ;  uncertainty r = 0.000079, k = 31.154098
        18        19     1        0.139399   331888.649609    ;  uncertainty r = 0.000087, k = 16.801357
        18        24     1        0.139529   322378.221484    ;  uncertainty r = 0.000112, k = 6.618765
        19        20     1        0.135284   339697.693359    ;  uncertainty r = 0.000139, k = 6.883764
        19        21     1        0.138876   355374.056543    ;  uncertainty r = 0.000029, k = 4.848304
        21        22     1        0.139230   385818.044873    ;  uncertainty r = 0.000031, k = 3.156029
        21        50     1        0.108754   335743.808252    ;  uncertainty r = 0.000014, k = 1.461762
        22        23     1        0.139117   371572.781299    ;  uncertainty r = 0.000042, k = 2.923689
        22        51     1        0.108705   332118.662354    ;  uncertainty r = 0.000011, k = 1.593644
        23        24     1        0.139176   333973.831201    ;  uncertainty r = 0.000089, k = 2.958672
        23        52     1        0.108623   333131.310889    ;  uncertainty r = 0.000019, k = 1.837628
        24        25     1        0.140554   317671.476855    ;  uncertainty r = 0.000102, k = 8.472881
        25        26     1        0.134456   229486.015723    ;  uncertainty r = 0.000080, k = 10.859863
        25        29     1        0.134456   229486.015723    ;  uncertainty r = 0.000080, k = 10.859863
        26        27     1        0.132965   463550.937305    ;  uncertainty r = 0.000052, k = 7.730519
        27        28     1        0.141781   249584.027246    ;  uncertainty r = 0.000103, k = 15.332668
        27        53     1        0.108418   339910.136572    ;  uncertainty r = 0.000037, k = 1.124302
        28        29     1        0.132965   463550.937305    ;  uncertainty r = 0.000052, k = 7.730519
        28        54     1        0.108418   339910.136572    ;  uncertainty r = 0.000037, k = 1.124302
        30        31     1        0.144958   283814.964600    ;  uncertainty r = 0.000165, k = 2.611581
        30        35     1        0.144958   283814.964600    ;  uncertainty r = 0.000165, k = 2.611581
        31        32     1        0.152270   211607.191772    ;  uncertainty r = 0.000077, k = 2.592528
        31        55     1        0.109738   308588.386719    ;  uncertainty r = 0.000040, k = 1.933155
        31        56     1        0.109738   308588.386719    ;  uncertainty r = 0.000040, k = 1.933155
        32        33     1        0.142205   277421.851416    ;  uncertainty r = 0.000042, k = 3.368848
        32        57     1        0.109845   309511.119092    ;  uncertainty r = 0.000019, k = 1.918412
        32        58     1        0.109845   309511.119092    ;  uncertainty r = 0.000019, k = 1.918412
        33        34     1        0.142205   277421.851416    ;  uncertainty r = 0.000042, k = 3.368848
        34        35     1        0.152270   211607.191772    ;  uncertainty r = 0.000077, k = 2.592528
        34        59     1        0.109845   309511.119092    ;  uncertainty r = 0.000019, k = 1.918412
        34        60     1        0.109845   309511.119092    ;  uncertainty r = 0.000019, k = 1.918398
        35        61     1        0.109738   308588.361182    ;  uncertainty r = 0.000040, k = 1.933156
        35        62     1        0.109738   308588.361182    ;  uncertainty r = 0.000040, k = 1.933156

[ angles ]
;       ai        aj        ak funct           theta             cth
         1         2         3     1      122.026291      404.270541    ;  uncertainty theta = 0.003124, k = 0.238181
         1         2         7     1      118.771118      511.907031    ;  uncertainty theta = 0.002046, k = 0.208084
         2         1        36     1      108.909019      385.557713    ;  uncertainty theta = 0.001755, k = 0.065371
         2         1        37     1      108.909019      385.557713    ;  uncertainty theta = 0.001755, k = 0.065371
         2         1        38     1      108.909019      385.557713    ;  uncertainty theta = 0.001755, k = 0.065371
         2         3         4     1      117.493729      492.419248    ;  uncertainty theta = 0.007780, k = 0.150326
         2         3        39     1      121.898743      280.497024    ;  uncertainty theta = 0.001940, k = 0.129931
         2         7         6     1      115.378990      411.976970    ;  uncertainty theta = 0.006145, k = 0.275490
         3         2         7     1      121.156845      656.896746    ;  uncertainty theta = 0.005501, k = 0.116638
         3         4         5     1      122.535912      543.804062    ;  uncertainty theta = 0.006006, k = 0.201752
         3         4        30     1      123.144409      438.482702    ;  uncertainty theta = 0.006244, k = 0.199893
         4         3        39     1      122.443039      271.369039    ;  uncertainty theta = 0.002433, k = 0.082952
         4         5         6     1      121.545883      445.784049    ;  uncertainty theta = 0.012483, k = 0.435901
         4        30        31     1      110.919289      420.123659    ;  uncertainty theta = 0.002478, k = 0.065174
         4        30        35     1      110.919289      420.123659    ;  uncertainty theta = 0.002478, k = 0.065174
         5         4        30     1      121.083130      635.520718    ;  uncertainty theta = 0.002761, k = 0.166942
         5         6         7     1      129.956055      748.832702    ;  uncertainty theta = 0.003187, k = 0.121856
         5         6         8     1      120.030457      583.765233    ;  uncertainty theta = 0.009830, k = 0.236687
         6         8         9     1      113.779701      429.312198    ;  uncertainty theta = 0.004021, k = 0.214947
         6         8        15     1      113.779701      429.312166    ;  uncertainty theta = 0.004021, k = 0.214948
         7         6         8     1      120.017555      550.035818    ;  uncertainty theta = 0.008301, k = 0.277949
         8         9        10     1      105.545349      834.296661    ;  uncertainty theta = 0.001825, k = 0.099538
         8         9        40     1      108.529068      455.632020    ;  uncertainty theta = 0.001052, k = 0.066315
         8         9        41     1      108.529068      455.632020    ;  uncertainty theta = 0.001052, k = 0.066315
         8        15        14     1      105.545349      834.296725    ;  uncertainty theta = 0.001825, k = 0.099538
         8        15        48     1      108.529068      455.632084    ;  uncertainty theta = 0.001052, k = 0.066315
         8        15        49     1      108.529068      455.632084    ;  uncertainty theta = 0.001052, k = 0.066315
         9         8        15     1      112.703087      486.397661    ;  uncertainty theta = 0.009767, k = 0.341228
         9        10        11     1      113.001526      495.885112    ;  uncertainty theta = 0.002967, k = 0.272650
         9        10        14     1      106.407143      696.228300    ;  uncertainty theta = 0.000820, k = 0.121960
         9        10        42     1      108.909218      387.529593    ;  uncertainty theta = 0.002428, k = 0.196423
        10         9        40     1      109.942749      401.681046    ;  uncertainty theta = 0.001744, k = 0.042629
        10         9        41     1      109.942749      401.681046    ;  uncertainty theta = 0.001744, k = 0.042629
        10        11        12     1      106.005104      800.142884    ;  uncertainty theta = 0.002837, k = 0.185313
        10        11        43     1      109.812805      398.157914    ;  uncertainty theta = 0.002056, k = 0.096133
        10        11        44     1      109.812805      398.157914    ;  uncertainty theta = 0.002056, k = 0.096133
        10        14        13     1      106.536072      683.535718    ;  uncertainty theta = 0.002057, k = 0.120116
        10        14        15     1      106.407143      696.228492    ;  uncertainty theta = 0.000820, k = 0.121960
        10        14        47     1      109.787766      408.249925    ;  uncertainty theta = 0.001833, k = 0.098421
        11        10        14     1      106.536072      683.535654    ;  uncertainty theta = 0.002057, k = 0.120117
        11        10        42     1      108.976547      381.109245    ;  uncertainty theta = 0.002391, k = 0.150517
        11        12        13     1      114.311745      540.101883    ;  uncertainty theta = 0.003229, k = 0.142692
        11        12        16     1      117.974327      368.182647    ;  uncertainty theta = 0.003980, k = 0.157584
        12        11        43     1      109.203384      457.892789    ;  uncertainty theta = 0.001598, k = 0.109127
        12        11        44     1      109.203384      457.892789    ;  uncertainty theta = 0.001598, k = 0.109127
        12        13        14     1      106.005104      800.142884    ;  uncertainty theta = 0.002837, k = 0.185312
        12        13        45     1      109.203384      457.892789    ;  uncertainty theta = 0.001598, k = 0.109127
        12        13        46     1      109.203384      457.892789    ;  uncertainty theta = 0.001598, k = 0.109127
        12        16        17     1      124.922256      740.345444    ;  uncertainty theta = 0.002458, k = 0.115631
        12        16        18     1      112.159889      368.733068    ;  uncertainty theta = 0.002788, k = 0.265066
        13        12        16     1      117.974327      368.182647    ;  uncertainty theta = 0.003980, k = 0.157584
        13        14        15     1      113.001526      495.885112    ;  uncertainty theta = 0.002967, k = 0.272650
        13        14        47     1      108.976547      381.109245    ;  uncertainty theta = 0.002391, k = 0.150517
        14        10        42     1      109.787766      408.249925    ;  uncertainty theta = 0.001833, k = 0.098421
        14        13        45     1      109.812805      398.157914    ;  uncertainty theta = 0.002056, k = 0.096133
        14        13        46     1      109.812805      398.157914    ;  uncertainty theta = 0.002056, k = 0.096133
        14        15        48     1      109.942749      401.681014    ;  uncertainty theta = 0.001744, k = 0.042629
        14        15        49     1      109.942749      401.681014    ;  uncertainty theta = 0.001744, k = 0.042629
        15        14        47     1      108.909218      387.529561    ;  uncertainty theta = 0.002428, k = 0.196423
        16        18        19     1      122.644753      394.633059    ;  uncertainty theta = 0.009716, k = 0.281698
        16        18        24     1      121.727440      360.483272    ;  uncertainty theta = 0.007459, k = 0.258991
        17        16        18     1      123.973495      474.716636    ;  uncertainty theta = 0.004986, k = 0.295298
        18        19        20     1      116.293533      481.718082    ;  uncertainty theta = 0.003628, k = 0.151958
        18        19        21     1      125.257851      358.228537    ;  uncertainty theta = 0.006392, k = 0.161234
        18        24        23     1      126.248352      383.964293    ;  uncertainty theta = 0.008470, k = 0.143041
        18        24        25     1      115.625549      424.401189    ;  uncertainty theta = 0.005276, k = 0.425221
        19        18        24     1      120.519875      451.018997    ;  uncertainty theta = 0.010533, k = 0.145475
        19        21        22     1      116.906998      480.293111    ;  uncertainty theta = 0.004692, k = 0.077746
        19        21        50     1      120.257713      280.421849    ;  uncertainty theta = 0.001644, k = 0.051464
        20        19        21     1      119.307655      515.150978    ;  uncertainty theta = 0.004276, k = 0.124646
        21        22        23     1      119.580154      501.480038    ;  uncertainty theta = 0.001152, k = 0.050795
        21        22        51     1      120.085129      283.076623    ;  uncertainty theta = 0.000551, k = 0.029815
        22        21        50     1      122.091469      282.690757    ;  uncertainty theta = 0.001292, k = 0.025850
        22        23        24     1      119.295853      511.815512    ;  uncertainty theta = 0.002200, k = 0.078353
        22        23        52     1      121.511391      292.121324    ;  uncertainty theta = 0.001401, k = 0.054323
        23        22        51     1      119.901108      278.613917    ;  uncertainty theta = 0.000633, k = 0.016225
        23        24        25     1      118.568016      453.799094    ;  uncertainty theta = 0.002843, k = 0.118727
        24        23        52     1      118.140259      263.598991    ;  uncertainty theta = 0.002697, k = 0.141621
        24        25        26     1      116.169716      430.317850    ;  uncertainty theta = 0.006654, k = 0.182017
        24        25        29     1      116.169716      430.317850    ;  uncertainty theta = 0.006654, k = 0.182017
        25        26        27     1      105.336914      920.571231    ;  uncertainty theta = 0.004509, k = 0.170853
        25        29        28     1      105.336914      920.571231    ;  uncertainty theta = 0.004509, k = 0.170853
        26        25        29     1      113.935104     1160.946488    ;  uncertainty theta = 0.004391, k = 0.191360
        26        27        28     1      108.874611      885.375859    ;  uncertainty theta = 0.003815, k = 0.097431
        26        27        53     1      119.790878      274.219077    ;  uncertainty theta = 0.003825, k = 0.115835
        27        28        29     1      108.874611      885.375859    ;  uncertainty theta = 0.003815, k = 0.097431
        27        28        54     1      127.065453      242.460680    ;  uncertainty theta = 0.004115, k = 0.077998
        28        27        53     1      127.065453      242.460680    ;  uncertainty theta = 0.004115, k = 0.077998
        29        28        54     1      119.790878      274.219077    ;  uncertainty theta = 0.003825, k = 0.115835
        30        31        32     1      108.279640      693.312601    ;  uncertainty theta = 0.001948, k = 0.118537
        30        31        55     1      106.768814      454.659950    ;  uncertainty theta = 0.000995, k = 0.029578
        30        31        56     1      106.768814      454.659950    ;  uncertainty theta = 0.000995, k = 0.029578
        30        35        34     1      108.279640      693.312601    ;  uncertainty theta = 0.001948, k = 0.118537
        30        35        61     1      106.768814      454.659950    ;  uncertainty theta = 0.000995, k = 0.029578
        30        35        62     1      106.768814      454.659950    ;  uncertainty theta = 0.000995, k = 0.029578
        31        30        35     1      109.363937      391.230814    ;  uncertainty theta = 0.008945, k = 0.233540
        31        32        33     1      110.647423      646.455580    ;  uncertainty theta = 0.002475, k = 0.057245
        31        32        57     1      109.597702      404.146686    ;  uncertainty theta = 0.001660, k = 0.033551
        31        32        58     1      109.597702      404.146686    ;  uncertainty theta = 0.001660, k = 0.033551
        32        31        55     1      109.058983      408.357053    ;  uncertainty theta = 0.001681, k = 0.039341
        32        31        56     1      109.058983      408.357053    ;  uncertainty theta = 0.001681, k = 0.039341
        32        33        34     1      110.231995      541.795632    ;  uncertainty theta = 0.002075, k = 0.065103
        33        32        57     1      107.019531      463.780050    ;  uncertainty theta = 0.001227, k = 0.017928
        33        32        58     1      107.019531      463.780050    ;  uncertainty theta = 0.001227, k = 0.017928
        33        34        35     1      110.647423      646.455580    ;  uncertainty theta = 0.002475, k = 0.057245
        33        34        59     1      107.019531      463.780050    ;  uncertainty theta = 0.001227, k = 0.017928
        33        34        60     1      107.019531      463.780050    ;  uncertainty theta = 0.001227, k = 0.017928
        34        35        61     1      109.058983      408.357053    ;  uncertainty theta = 0.001681, k = 0.039341
        34        35        62     1      109.058983      408.357053    ;  uncertainty theta = 0.001681, k = 0.039341
        35        34        59     1      109.597702      404.146686    ;  uncertainty theta = 0.001660, k = 0.033551
        35        34        60     1      109.597702      404.146686    ;  uncertainty theta = 0.001660, k = 0.033551
        36         1        37     1      107.156189      312.377838    ;  uncertainty theta = 0.001282, k = 0.034120
        36         1        38     1      107.156189      312.377838    ;  uncertainty theta = 0.001282, k = 0.034120
        37         1        38     1      107.156189      312.377838    ;  uncertainty theta = 0.001282, k = 0.034120
        40         9        41     1      105.123001      312.324913    ;  uncertainty theta = 0.002382, k = 0.114503
        43        11        44     1      105.371437      309.387890    ;  uncertainty theta = 0.003860, k = 0.079571
        45        13        46     1      105.371437      309.387890    ;  uncertainty theta = 0.003860, k = 0.079571
        48        15        49     1      105.123001      312.324913    ;  uncertainty theta = 0.002382, k = 0.114503
        55        31        56     1      105.795738      320.889325    ;  uncertainty theta = 0.001489, k = 0.036607
        57        32        58     1      107.588577      317.245116    ;  uncertainty theta = 0.001862, k = 0.033919
        59        34        60     1      107.588577      317.245116    ;  uncertainty theta = 0.001862, k = 0.033919
        61        35        62     1      105.795738      320.889357    ;  uncertainty theta = 0.001489, k = 0.036606

[ dihedrals ] ; propers for gromacs 4.5 or higher, use funct 9
;       ai        aj        ak        al funct           phase               k        pn
         1         2         3         4     9        0.000000        0.240195         1    ;  uncertainty k = 0.643043
         1         2         3         4     9      180.000000        8.798278         2    ;  uncertainty k = 0.456941
         1         2         3         4     9        0.000000        0.988711         3    ;  uncertainty k = 0.413428
         1         2         3         4     9      180.000000        1.331462         4    ;  uncertainty k = 0.259965
         1         2         3        39     9        0.000000       -0.352449         1    ;  uncertainty k = 0.398576
         1         2         3        39     9      180.000000        7.158665         2    ;  uncertainty k = 0.262050
         1         2         3        39     9        0.000000        0.616616         3    ;  uncertainty k = 0.246027
         1         2         3        39     9      180.000000        0.773335         4    ;  uncertainty k = 0.223312
         1         2         7         6     9        0.000000        0.016593         1    ;  uncertainty k = 1.069813
         1         2         7         6     9      180.000000       14.743520         2    ;  uncertainty k = 0.510501
         1         2         7         6     9        0.000000        2.320722         3    ;  uncertainty k = 0.372400
         1         2         7         6     9      180.000000        1.592293         4    ;  uncertainty k = 0.475853
         2         3         4         5     9        0.000000       -0.247553         1    ;  uncertainty k = 0.827185
         2         3         4         5     9      180.000000        7.739255         2    ;  uncertainty k = 1.089991
         2         3         4         5     9        0.000000       -1.005082         3    ;  uncertainty k = 0.670359
         2         3         4         5     9      180.000000        1.129201         4    ;  uncertainty k = 0.333991
         2         3         4        30     9        0.000000       -0.654645         1    ;  uncertainty k = 0.696888
         2         3         4        30     9      180.000000        6.797915         2    ;  uncertainty k = 0.630760
         2         3         4        30     9        0.000000        0.311863         3    ;  uncertainty k = 0.368444
         2         3         4        30     9      180.000000        0.884674         4    ;  uncertainty k = 0.271112
         2         7         6         5     9        0.000000       -0.193723         1    ;  uncertainty k = 1.121834
         2         7         6         5     9      180.000000        9.070864         2    ;  uncertainty k = 0.772007
         2         7         6         5     9        0.000000        0.658656         3    ;  uncertainty k = 0.662987
         2         7         6         5     9      180.000000        0.789666         4    ;  uncertainty k = 0.165445
         2         7         6         8     9        0.000000        0.584708         1    ;  uncertainty k = 1.095174
         2         7         6         8     9      180.000000       11.061488         2    ;  uncertainty k = 0.378879
         2         7         6         8     9        0.000000        1.683465         3    ;  uncertainty k = 0.349748
         2         7         6         8     9      180.000000        0.982232         4    ;  uncertainty k = 0.160672
         3         2         1        36     9        0.000000       -0.090089         1    ;  uncertainty k = 0.351625
         3         2         1        36     9      180.000000        2.421758         2    ;  uncertainty k = 0.292380
         3         2         1        36     9        0.000000        0.206067         3    ;  uncertainty k = 0.050783
         3         2         1        36     9      180.000000        0.178402         4    ;  uncertainty k = 0.033276
         3         2         1        37     9        0.000000       -0.090089         1    ;  uncertainty k = 0.351625
         3         2         1        37     9      180.000000        2.421758         2    ;  uncertainty k = 0.292380
         3         2         1        37     9        0.000000        0.206067         3    ;  uncertainty k = 0.050783
         3         2         1        37     9      180.000000        0.178402         4    ;  uncertainty k = 0.033276
         3         2         1        38     9        0.000000       -0.090089         1    ;  uncertainty k = 0.351625
         3         2         1        38     9      180.000000        2.421758         2    ;  uncertainty k = 0.292380
         3         2         1        38     9        0.000000        0.206067         3    ;  uncertainty k = 0.050783
         3         2         1        38     9      180.000000        0.178402         4    ;  uncertainty k = 0.033276
         3         2         7         6     9        0.000000       -0.564787         1    ;  uncertainty k = 0.424918
         3         2         7         6     9      180.000000       14.658830         2    ;  uncertainty k = 0.221395
         3         2         7         6     9        0.000000        0.107787         3    ;  uncertainty k = 0.459133
         3         2         7         6     9      180.000000        1.063903         4    ;  uncertainty k = 0.358249
         3         4         5         6     9        0.000000       -0.041600         1    ;  uncertainty k = 0.942598
         3         4         5         6     9      180.000000       11.724842         2    ;  uncertainty k = 0.534983
         3         4         5         6     9        0.000000        0.472284         3    ;  uncertainty k = 0.754094
         3         4         5         6     9      180.000000        0.961320         4    ;  uncertainty k = 0.252735
         3         4        30        31     9        0.000000        2.864065         1    ;  uncertainty k = 1.104505
         3         4        30        31     9      180.000000        9.514899         2    ;  uncertainty k = 0.176748
         3         4        30        31     9        0.000000        0.435850         3    ;  uncertainty k = 0.332483
         3         4        30        31     9      180.000000       -0.065940         4    ;  uncertainty k = 0.075217
         3         4        30        35     9        0.000000        2.864065         1    ;  uncertainty k = 1.104505
         3         4        30        35     9      180.000000        9.514899         2    ;  uncertainty k = 0.176748
         3         4        30        35     9        0.000000        0.435850         3    ;  uncertainty k = 0.332483
         3         4        30        35     9      180.000000       -0.065940         4    ;  uncertainty k = 0.075217
         4         3         2         7     9        0.000000       -0.121110         1    ;  uncertainty k = 0.538181
         4         3         2         7     9      180.000000       13.675288         2    ;  uncertainty k = 0.336402
         4         3         2         7     9        0.000000       -1.179394         3    ;  uncertainty k = 0.527432
         4         3         2         7     9      180.000000        0.933718         4    ;  uncertainty k = 0.128450
         4         5         6         7     9        0.000000       -0.641921         1    ;  uncertainty k = 1.085784
         4         5         6         7     9      180.000000        9.190697         2    ;  uncertainty k = 0.399051
         4         5         6         7     9        0.000000        0.979402         3    ;  uncertainty k = 0.377936
         4         5         6         7     9      180.000000        0.784929         4    ;  uncertainty k = 0.137052
         4         5         6         8     9        0.000000       -0.044336         1    ;  uncertainty k = 0.798675
         4         5         6         8     9      180.000000       10.863502         2    ;  uncertainty k = 0.436194
         4         5         6         8     9        0.000000        1.711931         3    ;  uncertainty k = 0.171023
         4         5         6         8     9      180.000000        0.925253         4    ;  uncertainty k = 0.380148
         4        30        31        32     9        0.000000       -0.356946         1    ;  uncertainty k = 1.091750
         4        30        31        32     9      180.000000        0.423383         2    ;  uncertainty k = 0.245128
         4        30        31        32     9        0.000000       -0.343063         3    ;  uncertainty k = 0.151536
         4        30        31        32     9      180.000000        0.307264         4    ;  uncertainty k = 0.088797
         4        30        31        55     9        0.000000       -0.371830         1    ;  uncertainty k = 0.588439
         4        30        31        55     9      180.000000       -0.804303         2    ;  uncertainty k = 0.306674
         4        30        31        55     9        0.000000        0.007361         3    ;  uncertainty k = 0.155856
         4        30        31        55     9      180.000000        0.235051         4    ;  uncertainty k = 0.078212
         4        30        31        56     9        0.000000       -0.371830         1    ;  uncertainty k = 0.588439
         4        30        31        56     9      180.000000       -0.804303         2    ;  uncertainty k = 0.306674
         4        30        31        56     9        0.000000        0.007361         3    ;  uncertainty k = 0.155856
         4        30        31        56     9      180.000000        0.235051         4    ;  uncertainty k = 0.078212
         4        30        35        34     9        0.000000       -0.356946         1    ;  uncertainty k = 1.091750
         4        30        35        34     9      180.000000        0.423383         2    ;  uncertainty k = 0.245128
         4        30        35        34     9        0.000000       -0.343063         3    ;  uncertainty k = 0.151536
         4        30        35        34     9      180.000000        0.307264         4    ;  uncertainty k = 0.088797
         4        30        35        61     9        0.000000       -0.371830         1    ;  uncertainty k = 0.588439
         4        30        35        61     9      180.000000       -0.804303         2    ;  uncertainty k = 0.306674
         4        30        35        61     9        0.000000        0.007361         3    ;  uncertainty k = 0.155856
         4        30        35        61     9      180.000000        0.235051         4    ;  uncertainty k = 0.078212
         4        30        35        62     9        0.000000       -0.371830         1    ;  uncertainty k = 0.588439
         4        30        35        62     9      180.000000       -0.804303         2    ;  uncertainty k = 0.306674
         4        30        35        62     9        0.000000        0.007361         3    ;  uncertainty k = 0.155856
         4        30        35        62     9      180.000000        0.235051         4    ;  uncertainty k = 0.078212
         5         4         3        39     9        0.000000        0.645692         1    ;  uncertainty k = 0.822531
         5         4         3        39     9      180.000000        6.967500         2    ;  uncertainty k = 0.728583
         5         4         3        39     9        0.000000        1.215214         3    ;  uncertainty k = 0.349503
         5         4         3        39     9      180.000000        1.222858         4    ;  uncertainty k = 0.121821
         5         4        30        31     9        0.000000        6.789371         1    ;  uncertainty k = 0.411426
         5         4        30        31     9      180.000000       12.029578         2    ;  uncertainty k = 0.136521
         5         4        30        31     9        0.000000        0.454200         3    ;  uncertainty k = 0.312401
         5         4        30        31     9      180.000000       -0.129120         4    ;  uncertainty k = 0.134476
         5         4        30        35     9        0.000000        6.789371         1    ;  uncertainty k = 0.411426
         5         4        30        35     9      180.000000       12.029578         2    ;  uncertainty k = 0.136521
         5         4        30        35     9        0.000000        0.454200         3    ;  uncertainty k = 0.312401
         5         4        30        35     9      180.000000       -0.129120         4    ;  uncertainty k = 0.134476
         5         6         8         9     9        0.000000        6.695165         1    ;  uncertainty k = 0.687131
         5         6         8         9     9      180.000000       11.591816         2    ;  uncertainty k = 0.274560
         5         6         8         9     9        0.000000        0.264083         3    ;  uncertainty k = 0.236344
         5         6         8         9     9      180.000000       -0.359086         4    ;  uncertainty k = 0.164952
         5         6         8        15     9        0.000000        6.695166         1    ;  uncertainty k = 0.687131
         5         6         8        15     9      180.000000       11.591816         2    ;  uncertainty k = 0.274560
         5         6         8        15     9        0.000000        0.264083         3    ;  uncertainty k = 0.236344
         5         6         8        15     9      180.000000       -0.359087         4    ;  uncertainty k = 0.164952
         6         5         4        30     9        0.000000        0.079148         1    ;  uncertainty k = 1.676174
         6         5         4        30     9      180.000000       14.549813         2    ;  uncertainty k = 0.314586
         6         5         4        30     9        0.000000        2.100445         3    ;  uncertainty k = 0.716346
         6         5         4        30     9      180.000000        1.466126         4    ;  uncertainty k = 0.314757
         6         8         9        10     9        0.000000       -5.410721         1    ;  uncertainty k = 1.800953
         6         8         9        10     9      180.000000        0.680670         2    ;  uncertainty k = 0.716117
         6         8         9        10     9        0.000000        0.795935         3    ;  uncertainty k = 0.286125
         6         8         9        10     9      180.000000        0.313689         4    ;  uncertainty k = 0.128657
         6         8         9        40     9        0.000000       -0.237027         1    ;  uncertainty k = 0.699427
         6         8         9        40     9      180.000000        0.992207         2    ;  uncertainty k = 0.484996
         6         8         9        40     9        0.000000        0.575348         3    ;  uncertainty k = 0.127199
         6         8         9        40     9      180.000000        0.377066         4    ;  uncertainty k = 0.103783
         6         8         9        41     9        0.000000       -0.237027         1    ;  uncertainty k = 0.699427
         6         8         9        41     9      180.000000        0.992207         2    ;  uncertainty k = 0.484996
         6         8         9        41     9        0.000000        0.575348         3    ;  uncertainty k = 0.127199
         6         8         9        41     9      180.000000        0.377066         4    ;  uncertainty k = 0.103783
         6         8        15        14     9        0.000000       -5.410720         1    ;  uncertainty k = 1.800952
         6         8        15        14     9      180.000000        0.680669         2    ;  uncertainty k = 0.716116
         6         8        15        14     9        0.000000        0.795935         3    ;  uncertainty k = 0.286125
         6         8        15        14     9      180.000000        0.313689         4    ;  uncertainty k = 0.128657
         6         8        15        48     9        0.000000       -0.237027         1    ;  uncertainty k = 0.699427
         6         8        15        48     9      180.000000        0.992206         2    ;  uncertainty k = 0.484995
         6         8        15        48     9        0.000000        0.575347         3    ;  uncertainty k = 0.127199
         6         8        15        48     9      180.000000        0.377066         4    ;  uncertainty k = 0.103783
         6         8        15        49     9        0.000000       -0.237027         1    ;  uncertainty k = 0.699427
         6         8        15        49     9      180.000000        0.992206         2    ;  uncertainty k = 0.484995
         6         8        15        49     9        0.000000        0.575347         3    ;  uncertainty k = 0.127199
         6         8        15        49     9      180.000000        0.377066         4    ;  uncertainty k = 0.103783
         7         2         1        36     9        0.000000        0.517374         1    ;  uncertainty k = 0.242378
         7         2         1        36     9      180.000000        3.597883         2    ;  uncertainty k = 0.147123
         7         2         1        36     9        0.000000        0.513328         3    ;  uncertainty k = 0.063578
         7         2         1        36     9      180.000000        0.275578         4    ;  uncertainty k = 0.040589
         7         2         1        37     9        0.000000        0.517374         1    ;  uncertainty k = 0.242378
         7         2         1        37     9      180.000000        3.597883         2    ;  uncertainty k = 0.147123
         7         2         1        37     9        0.000000        0.513328         3    ;  uncertainty k = 0.063578
         7         2         1        37     9      180.000000        0.275578         4    ;  uncertainty k = 0.040589
         7         2         1        38     9        0.000000        0.517374         1    ;  uncertainty k = 0.242378
         7         2         1        38     9      180.000000        3.597883         2    ;  uncertainty k = 0.147123
         7         2         1        38     9        0.000000        0.513328         3    ;  uncertainty k = 0.063578
         7         2         1        38     9      180.000000        0.275578         4    ;  uncertainty k = 0.040589
         7         2         3        39     9        0.000000        0.329484         1    ;  uncertainty k = 0.420099
         7         2         3        39     9      180.000000        9.267255         2    ;  uncertainty k = 0.411608
         7         2         3        39     9        0.000000        1.268724         3    ;  uncertainty k = 0.317681
         7         2         3        39     9      180.000000        1.643904         4    ;  uncertainty k = 0.088293
         7         6         8         9     9        0.000000        5.139784         1    ;  uncertainty k = 0.445535
         7         6         8         9     9      180.000000       11.819303         2    ;  uncertainty k = 0.207068
         7         6         8         9     9        0.000000        0.163676         3    ;  uncertainty k = 0.217295
         7         6         8         9     9      180.000000       -0.334857         4    ;  uncertainty k = 0.096767
         7         6         8        15     9        0.000000        5.139783         1    ;  uncertainty k = 0.445534
         7         6         8        15     9      180.000000       11.819302         2    ;  uncertainty k = 0.207067
         7         6         8        15     9        0.000000        0.163675         3    ;  uncertainty k = 0.217294
         7         6         8        15     9      180.000000       -0.334857         4    ;  uncertainty k = 0.096768
         8         9        10        11     9        0.000000       -1.970204         1    ;  uncertainty k = 1.121290
         8         9        10        11     9      180.000000        0.980930         2    ;  uncertainty k = 0.868707
         8         9        10        11     9        0.000000        1.650495         3    ;  uncertainty k = 0.386020
         8         9        10        11     9      180.000000       -0.171251         4    ;  uncertainty k = 0.238234
         8         9        10        14     9        0.000000       -0.218824         1    ;  uncertainty k = 1.675672
         8         9        10        14     9      180.000000        6.195343         2    ;  uncertainty k = 1.098009
         8         9        10        14     9        0.000000        0.671944         3    ;  uncertainty k = 0.341653
         8         9        10        14     9      180.000000       -1.491045         4    ;  uncertainty k = 0.511495
         8         9        10        42     9        0.000000        0.576122         1    ;  uncertainty k = 0.870612
         8         9        10        42     9      180.000000        1.323774         2    ;  uncertainty k = 0.504979
         8         9        10        42     9        0.000000        1.173977         3    ;  uncertainty k = 0.225827
         8         9        10        42     9      180.000000       -0.071316         4    ;  uncertainty k = 0.183710
         8        15        14        10     9        0.000000       -0.218822         1    ;  uncertainty k = 1.675669
         8        15        14        10     9      180.000000        6.195342         2    ;  uncertainty k = 1.098009
         8        15        14        10     9        0.000000        0.671943         3    ;  uncertainty k = 0.341654
         8        15        14        10     9      180.000000       -1.491045         4    ;  uncertainty k = 0.511496
         8        15        14        13     9        0.000000       -1.970202         1    ;  uncertainty k = 1.121289
         8        15        14        13     9      180.000000        0.980930         2    ;  uncertainty k = 0.868708
         8        15        14        13     9        0.000000        1.650495         3    ;  uncertainty k = 0.386020
         8        15        14        13     9      180.000000       -0.171250         4    ;  uncertainty k = 0.238234
         8        15        14        47     9        0.000000        0.576122         1    ;  uncertainty k = 0.870613
         8        15        14        47     9      180.000000        1.323775         2    ;  uncertainty k = 0.504982
         8        15        14        47     9        0.000000        1.173978         3    ;  uncertainty k = 0.225827
         8        15        14        47     9      180.000000       -0.071316         4    ;  uncertainty k = 0.183710
         9         8        15        14     9        0.000000        0.427081         1    ;  uncertainty k = 1.042937
         9         8        15        14     9      180.000000        1.402642         2    ;  uncertainty k = 1.155391
         9         8        15        14     9        0.000000        0.876412         3    ;  uncertainty k = 0.347103
         9         8        15        14     9      180.000000        0.021156         4    ;  uncertainty k = 0.167237
         9         8        15        48     9        0.000000       -2.093793         1    ;  uncertainty k = 0.692189
         9         8        15        48     9      180.000000        1.285855         2    ;  uncertainty k = 0.414962
         9         8        15        48     9        0.000000        1.142424         3    ;  uncertainty k = 0.075671
         9         8        15        48     9      180.000000        0.250802         4    ;  uncertainty k = 0.124189
         9         8        15        49     9        0.000000       -2.093793         1    ;  uncertainty k = 0.692189
         9         8        15        49     9      180.000000        1.285855         2    ;  uncertainty k = 0.414962
         9         8        15        49     9        0.000000        1.142424         3    ;  uncertainty k = 0.075671
         9         8        15        49     9      180.000000        0.250802         4    ;  uncertainty k = 0.124189
         9        10        11        12     9        0.000000       -2.607420         1    ;  uncertainty k = 0.995424
         9        10        11        12     9      180.000000        0.022076         2    ;  uncertainty k = 0.727033
         9        10        11        12     9        0.000000        1.612970         3    ;  uncertainty k = 0.235291
         9        10        11        12     9      180.000000       -0.185713         4    ;  uncertainty k = 0.112586
         9        10        11        43     9        0.000000       -0.498818         1    ;  uncertainty k = 0.107247
         9        10        11        43     9      180.000000       -0.409706         2    ;  uncertainty k = 0.197166
         9        10        11        43     9        0.000000        0.564543         3    ;  uncertainty k = 0.186998
         9        10        11        43     9      180.000000       -0.072177         4    ;  uncertainty k = 0.062323
         9        10        11        44     9        0.000000       -0.498818         1    ;  uncertainty k = 0.107247
         9        10        11        44     9      180.000000       -0.409706         2    ;  uncertainty k = 0.197166
         9        10        11        44     9        0.000000        0.564543         3    ;  uncertainty k = 0.186998
         9        10        11        44     9      180.000000       -0.072177         4    ;  uncertainty k = 0.062323
         9        10        14        13     9        0.000000       -3.847150         1    ;  uncertainty k = 0.842081
         9        10        14        13     9      180.000000        0.994502         2    ;  uncertainty k = 1.017626
         9        10        14        13     9        0.000000        1.189094         3    ;  uncertainty k = 0.581588
         9        10        14        13     9      180.000000       -0.416044         4    ;  uncertainty k = 0.334399
         9        10        14        15     9        0.000000       -3.896618         1    ;  uncertainty k = 1.087275
         9        10        14        15     9      180.000000        1.035025         2    ;  uncertainty k = 1.026286
         9        10        14        15     9        0.000000        1.207838         3    ;  uncertainty k = 0.671623
         9        10        14        15     9      180.000000       -0.436931         4    ;  uncertainty k = 0.343366
         9        10        14        47     9        0.000000       -1.223112         1    ;  uncertainty k = 0.611377
         9        10        14        47     9      180.000000        0.489634         2    ;  uncertainty k = 0.414978
         9        10        14        47     9        0.000000        0.997353         3    ;  uncertainty k = 0.241670
         9        10        14        47     9      180.000000        0.066778         4    ;  uncertainty k = 0.087125
        10         9         8        15     9        0.000000        0.427082         1    ;  uncertainty k = 1.042936
        10         9         8        15     9      180.000000        1.402642         2    ;  uncertainty k = 1.155391
        10         9         8        15     9        0.000000        0.876412         3    ;  uncertainty k = 0.347103
        10         9         8        15     9      180.000000        0.021156         4    ;  uncertainty k = 0.167238
        10        11        12        13     9        0.000000       -0.578347         1    ;  uncertainty k = 0.919747
        10        11        12        13     9      180.000000        0.242792         2    ;  uncertainty k = 0.701024
        10        11        12        13     9        0.000000        0.797027         3    ;  uncertainty k = 0.218418
        10        11        12        13     9      180.000000        0.154107         4    ;  uncertainty k = 0.246781
        10        11        12        16     9        0.000000       -0.209381         1    ;  uncertainty k = 0.966461
        10        11        12        16     9      180.000000       -0.541701         2    ;  uncertainty k = 0.373893
        10        11        12        16     9        0.000000        0.202801         3    ;  uncertainty k = 0.362931
        10        11        12        16     9      180.000000        0.702312         4    ;  uncertainty k = 0.132281
        10        14        13        12     9        0.000000       -0.736764         1    ;  uncertainty k = 0.633515
        10        14        13        12     9      180.000000        6.025412         2    ;  uncertainty k = 1.000861
        10        14        13        12     9        0.000000        0.435197         3    ;  uncertainty k = 0.297546
        10        14        13        12     9      180.000000       -1.170163         4    ;  uncertainty k = 0.204855
        10        14        13        45     9        0.000000        0.480411         1    ;  uncertainty k = 0.492791
        10        14        13        45     9      180.000000       -1.104496         2    ;  uncertainty k = 0.672329
        10        14        13        45     9        0.000000       -0.270073         3    ;  uncertainty k = 0.170671
        10        14        13        45     9      180.000000       -0.013160         4    ;  uncertainty k = 0.174221
        10        14        13        46     9        0.000000        0.480411         1    ;  uncertainty k = 0.492791
        10        14        13        46     9      180.000000       -1.104496         2    ;  uncertainty k = 0.672329
        10        14        13        46     9        0.000000       -0.270073         3    ;  uncertainty k = 0.170671
        10        14        13        46     9      180.000000       -0.013160         4    ;  uncertainty k = 0.174221
        10        14        15        48     9        0.000000        0.646621         1    ;  uncertainty k = 0.517783
        10        14        15        48     9      180.000000       -1.099688         2    ;  uncertainty k = 0.743824
        10        14        15        48     9        0.000000       -0.334779         3    ;  uncertainty k = 0.213643
        10        14        15        48     9      180.000000       -0.018734         4    ;  uncertainty k = 0.206092
        10        14        15        49     9        0.000000        0.646621         1    ;  uncertainty k = 0.517783
        10        14        15        49     9      180.000000       -1.099688         2    ;  uncertainty k = 0.743824
        10        14        15        49     9        0.000000       -0.334779         3    ;  uncertainty k = 0.213643
        10        14        15        49     9      180.000000       -0.018734         4    ;  uncertainty k = 0.206092
        11        10         9        40     9        0.000000       -0.670734         1    ;  uncertainty k = 0.233995
        11        10         9        40     9      180.000000       -0.386310         2    ;  uncertainty k = 0.258590
        11        10         9        40     9        0.000000        0.557637         3    ;  uncertainty k = 0.179621
        11        10         9        40     9      180.000000       -0.081826         4    ;  uncertainty k = 0.095492
        11        10         9        41     9        0.000000       -0.670734         1    ;  uncertainty k = 0.233995
        11        10         9        41     9      180.000000       -0.386310         2    ;  uncertainty k = 0.258590
        11        10         9        41     9        0.000000        0.557637         3    ;  uncertainty k = 0.179621
        11        10         9        41     9      180.000000       -0.081826         4    ;  uncertainty k = 0.095492
        11        10        14        13     9        0.000000       -3.717091         1    ;  uncertainty k = 0.646014
        11        10        14        13     9      180.000000        0.952705         2    ;  uncertainty k = 0.984304
        11        10        14        13     9        0.000000        1.178983         3    ;  uncertainty k = 0.499657
        11        10        14        13     9      180.000000       -0.410261         4    ;  uncertainty k = 0.338854
        11        10        14        15     9        0.000000       -3.847151         1    ;  uncertainty k = 0.842082
        11        10        14        15     9      180.000000        0.994504         2    ;  uncertainty k = 1.017625
        11        10        14        15     9        0.000000        1.189094         3    ;  uncertainty k = 0.581588
        11        10        14        15     9      180.000000       -0.416044         4    ;  uncertainty k = 0.334399
        11        10        14        47     9        0.000000       -1.291634         1    ;  uncertainty k = 0.560343
        11        10        14        47     9      180.000000        0.594321         2    ;  uncertainty k = 0.368266
        11        10        14        47     9        0.000000        1.030260         3    ;  uncertainty k = 0.246250
        11        10        14        47     9      180.000000        0.081405         4    ;  uncertainty k = 0.059901
        11        12        13        14     9        0.000000       -0.578347         1    ;  uncertainty k = 0.919747
        11        12        13        14     9      180.000000        0.242792         2    ;  uncertainty k = 0.701025
        11        12        13        14     9        0.000000        0.797027         3    ;  uncertainty k = 0.218419
        11        12        13        14     9      180.000000        0.154107         4    ;  uncertainty k = 0.246781
        11        12        13        45     9        0.000000       -1.810377         1    ;  uncertainty k = 0.576097
        11        12        13        45     9      180.000000        1.086382         2    ;  uncertainty k = 0.426528
        11        12        13        45     9        0.000000        1.250141         3    ;  uncertainty k = 0.136647
        11        12        13        45     9      180.000000        0.301768         4    ;  uncertainty k = 0.117464
        11        12        13        46     9        0.000000       -1.810377         1    ;  uncertainty k = 0.576097
        11        12        13        46     9      180.000000        1.086382         2    ;  uncertainty k = 0.426528
        11        12        13        46     9        0.000000        1.250141         3    ;  uncertainty k = 0.136647
        11        12        13        46     9      180.000000        0.301768         4    ;  uncertainty k = 0.117464
        11        12        16        17     9        0.000000        6.357003         1    ;  uncertainty k = 0.547606
        11        12        16        17     9      180.000000       16.962734         2    ;  uncertainty k = 0.212954
        11        12        16        17     9        0.000000        0.267170         3    ;  uncertainty k = 0.202910
        11        12        16        17     9      180.000000       -1.190649         4    ;  uncertainty k = 0.124612
        11        12        16        18     9        0.000000        3.407849         1    ;  uncertainty k = 1.339110
        11        12        16        18     9      180.000000        8.996075         2    ;  uncertainty k = 0.412445
        11        12        16        18     9        0.000000        1.595044         3    ;  uncertainty k = 0.230309
        11        12        16        18     9      180.000000       -0.020267         4    ;  uncertainty k = 0.371981
        12        11        10        14     9        0.000000       -0.736762         1    ;  uncertainty k = 0.633517
        12        11        10        14     9      180.000000        6.025413         2    ;  uncertainty k = 1.000861
        12        11        10        14     9        0.000000        0.435196         3    ;  uncertainty k = 0.297545
        12        11        10        14     9      180.000000       -1.170163         4    ;  uncertainty k = 0.204856
        12        11        10        42     9        0.000000        0.123161         1    ;  uncertainty k = 0.632773
        12        11        10        42     9      180.000000        0.836162         2    ;  uncertainty k = 0.434791
        12        11        10        42     9        0.000000        1.098159         3    ;  uncertainty k = 0.161086
        12        11        10        42     9      180.000000       -0.066245         4    ;  uncertainty k = 0.104331
        12        13        14        15     9        0.000000       -2.607419         1    ;  uncertainty k = 0.995424
        12        13        14        15     9      180.000000        0.022076         2    ;  uncertainty k = 0.727033
        12        13        14        15     9        0.000000        1.612970         3    ;  uncertainty k = 0.235290
        12        13        14        15     9      180.000000       -0.185713         4    ;  uncertainty k = 0.112586
        12        13        14        47     9        0.000000        0.123160         1    ;  uncertainty k = 0.632774
        12        13        14        47     9      180.000000        0.836161         2    ;  uncertainty k = 0.434791
        12        13        14        47     9        0.000000        1.098159         3    ;  uncertainty k = 0.161086
        12        13        14        47     9      180.000000       -0.066245         4    ;  uncertainty k = 0.104331
        12        16        18        19     9        0.000000        1.851367         1    ;  uncertainty k = 1.259576
        12        16        18        19     9      180.000000        5.752965         2    ;  uncertainty k = 0.175508
        12        16        18        19     9        0.000000        0.162215         3    ;  uncertainty k = 0.318225
        12        16        18        19     9      180.000000        0.484794         4    ;  uncertainty k = 0.155871
        12        16        18        24     9        0.000000        3.709916         1    ;  uncertainty k = 1.132205
        12        16        18        24     9      180.000000        5.907216         2    ;  uncertainty k = 0.295098
        12        16        18        24     9        0.000000        0.162296         3    ;  uncertainty k = 0.106376
        12        16        18        24     9      180.000000        0.490410         4    ;  uncertainty k = 0.140372
        13        12        11        43     9        0.000000       -1.810377         1    ;  uncertainty k = 0.576098
        13        12        11        43     9      180.000000        1.086382         2    ;  uncertainty k = 0.426526
        13        12        11        43     9        0.000000        1.250141         3    ;  uncertainty k = 0.136647
        13        12        11        43     9      180.000000        0.301768         4    ;  uncertainty k = 0.117464
        13        12        11        44     9        0.000000       -1.810377         1    ;  uncertainty k = 0.576098
        13        12        11        44     9      180.000000        1.086382         2    ;  uncertainty k = 0.426526
        13        12        11        44     9        0.000000        1.250141         3    ;  uncertainty k = 0.136647
        13        12        11        44     9      180.000000        0.301768         4    ;  uncertainty k = 0.117464
        13        12        16        17     9        0.000000        6.357001         1    ;  uncertainty k = 0.547606
        13        12        16        17     9      180.000000       16.962734         2    ;  uncertainty k = 0.212955
        13        12        16        17     9        0.000000        0.267170         3    ;  uncertainty k = 0.202910
        13        12        16        17     9      180.000000       -1.190649         4    ;  uncertainty k = 0.124611
        13        12        16        18     9        0.000000        3.407847         1    ;  uncertainty k = 1.339110
        13        12        16        18     9      180.000000        8.996074         2    ;  uncertainty k = 0.412445
        13        12        16        18     9        0.000000        1.595043         3    ;  uncertainty k = 0.230310
        13        12        16        18     9      180.000000       -0.020268         4    ;  uncertainty k = 0.371981
        13        14        10        42     9        0.000000       -1.291633         1    ;  uncertainty k = 0.560343
        13        14        10        42     9      180.000000        0.594321         2    ;  uncertainty k = 0.368268
        13        14        10        42     9        0.000000        1.030260         3    ;  uncertainty k = 0.246250
        13        14        10        42     9      180.000000        0.081405         4    ;  uncertainty k = 0.059900
        13        14        15        48     9        0.000000       -0.670733         1    ;  uncertainty k = 0.233996
        13        14        15        48     9      180.000000       -0.386309         2    ;  uncertainty k = 0.258591
        13        14        15        48     9        0.000000        0.557638         3    ;  uncertainty k = 0.179621
        13        14        15        48     9      180.000000       -0.081826         4    ;  uncertainty k = 0.095492
        13        14        15        49     9        0.000000       -0.670733         1    ;  uncertainty k = 0.233996
        13        14        15        49     9      180.000000       -0.386309         2    ;  uncertainty k = 0.258591
        13        14        15        49     9        0.000000        0.557638         3    ;  uncertainty k = 0.179621
        13        14        15        49     9      180.000000       -0.081826         4    ;  uncertainty k = 0.095492
        14        10         9        40     9        0.000000        0.646621         1    ;  uncertainty k = 0.517781
        14        10         9        40     9      180.000000       -1.099689         2    ;  uncertainty k = 0.743823
        14        10         9        40     9        0.000000       -0.334778         3    ;  uncertainty k = 0.213644
        14        10         9        40     9      180.000000       -0.018734         4    ;  uncertainty k = 0.206091
        14        10         9        41     9        0.000000        0.646621         1    ;  uncertainty k = 0.517781
        14        10         9        41     9      180.000000       -1.099689         2    ;  uncertainty k = 0.743823
        14        10         9        41     9        0.000000       -0.334778         3    ;  uncertainty k = 0.213644
        14        10         9        41     9      180.000000       -0.018734         4    ;  uncertainty k = 0.206091
        14        10        11        43     9        0.000000        0.480411         1    ;  uncertainty k = 0.492791
        14        10        11        43     9      180.000000       -1.104495         2    ;  uncertainty k = 0.672328
        14        10        11        43     9        0.000000       -0.270073         3    ;  uncertainty k = 0.170671
        14        10        11        43     9      180.000000       -0.013161         4    ;  uncertainty k = 0.174221
        14        10        11        44     9        0.000000        0.480411         1    ;  uncertainty k = 0.492791
        14        10        11        44     9      180.000000       -1.104495         2    ;  uncertainty k = 0.672328
        14        10        11        44     9        0.000000       -0.270073         3    ;  uncertainty k = 0.170671
        14        10        11        44     9      180.000000       -0.013161         4    ;  uncertainty k = 0.174221
        14        13        12        16     9        0.000000       -0.209380         1    ;  uncertainty k = 0.966459
        14        13        12        16     9      180.000000       -0.541701         2    ;  uncertainty k = 0.373894
        14        13        12        16     9        0.000000        0.202801         3    ;  uncertainty k = 0.362931
        14        13        12        16     9      180.000000        0.702311         4    ;  uncertainty k = 0.132281
        15         8         9        40     9        0.000000       -2.093793         1    ;  uncertainty k = 0.692189
        15         8         9        40     9      180.000000        1.285855         2    ;  uncertainty k = 0.414960
        15         8         9        40     9        0.000000        1.142424         3    ;  uncertainty k = 0.075671
        15         8         9        40     9      180.000000        0.250802         4    ;  uncertainty k = 0.124189
        15         8         9        41     9        0.000000       -2.093793         1    ;  uncertainty k = 0.692189
        15         8         9        41     9      180.000000        1.285855         2    ;  uncertainty k = 0.414960
        15         8         9        41     9        0.000000        1.142424         3    ;  uncertainty k = 0.075671
        15         8         9        41     9      180.000000        0.250802         4    ;  uncertainty k = 0.124189
        15        14        10        42     9        0.000000       -1.223110         1    ;  uncertainty k = 0.611378
        15        14        10        42     9      180.000000        0.489635         2    ;  uncertainty k = 0.414979
        15        14        10        42     9        0.000000        0.997353         3    ;  uncertainty k = 0.241669
        15        14        10        42     9      180.000000        0.066778         4    ;  uncertainty k = 0.087125
        15        14        13        45     9        0.000000       -0.498818         1    ;  uncertainty k = 0.107248
        15        14        13        45     9      180.000000       -0.409705         2    ;  uncertainty k = 0.197166
        15        14        13        45     9        0.000000        0.564544         3    ;  uncertainty k = 0.186998
        15        14        13        45     9      180.000000       -0.072177         4    ;  uncertainty k = 0.062323
        15        14        13        46     9        0.000000       -0.498818         1    ;  uncertainty k = 0.107248
        15        14        13        46     9      180.000000       -0.409705         2    ;  uncertainty k = 0.197166
        15        14        13        46     9        0.000000        0.564544         3    ;  uncertainty k = 0.186998
        15        14        13        46     9      180.000000       -0.072177         4    ;  uncertainty k = 0.062323
        16        12        11        43     9        0.000000        1.416105         1    ;  uncertainty k = 0.719804
        16        12        11        43     9      180.000000        0.065610         2    ;  uncertainty k = 0.093474
        16        12        11        43     9        0.000000        0.002232         3    ;  uncertainty k = 0.089343
        16        12        11        43     9      180.000000        0.277826         4    ;  uncertainty k = 0.071341
        16        12        11        44     9        0.000000        1.416105         1    ;  uncertainty k = 0.719804
        16        12        11        44     9      180.000000        0.065610         2    ;  uncertainty k = 0.093474
        16        12        11        44     9        0.000000        0.002232         3    ;  uncertainty k = 0.089343
        16        12        11        44     9      180.000000        0.277826         4    ;  uncertainty k = 0.071341
        16        12        13        45     9        0.000000        1.416105         1    ;  uncertainty k = 0.719804
        16        12        13        45     9      180.000000        0.065610         2    ;  uncertainty k = 0.093472
        16        12        13        45     9        0.000000        0.002232         3    ;  uncertainty k = 0.089343
        16        12        13        45     9      180.000000        0.277826         4    ;  uncertainty k = 0.071341
        16        12        13        46     9        0.000000        1.416105         1    ;  uncertainty k = 0.719804
        16        12        13        46     9      180.000000        0.065610         2    ;  uncertainty k = 0.093472
        16        12        13        46     9        0.000000        0.002232         3    ;  uncertainty k = 0.089343
        16        12        13        46     9      180.000000        0.277826         4    ;  uncertainty k = 0.071341
        16        18        19        20     9        0.000000        0.086680         1    ;  uncertainty k = 0.322670
        16        18        19        20     9      180.000000       11.407953         2    ;  uncertainty k = 0.599565
        16        18        19        20     9        0.000000        1.385161         3    ;  uncertainty k = 0.187005
        16        18        19        20     9      180.000000        1.483635         4    ;  uncertainty k = 0.318096
        16        18        19        21     9        0.000000        0.114462         1    ;  uncertainty k = 0.659063
        16        18        19        21     9      180.000000        6.312817         2    ;  uncertainty k = 0.577136
        16        18        19        21     9        0.000000        1.356865         3    ;  uncertainty k = 0.282275
        16        18        19        21     9      180.000000        1.940646         4    ;  uncertainty k = 0.196893
        16        18        24        23     9        0.000000        0.266109         1    ;  uncertainty k = 0.262230
        16        18        24        23     9      180.000000        6.791976         2    ;  uncertainty k = 0.556220
        16        18        24        23     9        0.000000        1.305735         3    ;  uncertainty k = 0.332052
        16        18        24        23     9      180.000000        1.750369         4    ;  uncertainty k = 0.249436
        16        18        24        25     9        0.000000       -0.079088         1    ;  uncertainty k = 0.890587
        16        18        24        25     9      180.000000       10.037557         2    ;  uncertainty k = 0.622174
        16        18        24        25     9        0.000000        1.315712         3    ;  uncertainty k = 0.504290
        16        18        24        25     9      180.000000        1.286094         4    ;  uncertainty k = 0.361801
        17        16        18        19     9        0.000000       -1.928785         1    ;  uncertainty k = 0.969843
        17        16        18        19     9      180.000000        5.038791         2    ;  uncertainty k = 0.443316
        17        16        18        19     9        0.000000        0.869540         3    ;  uncertainty k = 0.424298
        17        16        18        19     9      180.000000        0.459984         4    ;  uncertainty k = 0.229979
        17        16        18        24     9        0.000000       -3.997731         1    ;  uncertainty k = 0.906468
        17        16        18        24     9      180.000000        5.945518         2    ;  uncertainty k = 0.542758
        17        16        18        24     9        0.000000        0.551178         3    ;  uncertainty k = 0.549645
        17        16        18        24     9      180.000000        0.513462         4    ;  uncertainty k = 0.329406
        18        19        21        22     9        0.000000        0.011529         1    ;  uncertainty k = 0.194930
        18        19        21        22     9      180.000000        8.787238         2    ;  uncertainty k = 0.361867
        18        19        21        22     9        0.000000        0.106727         3    ;  uncertainty k = 0.344316
        18        19        21        22     9      180.000000        1.205900         4    ;  uncertainty k = 0.276948
        18        19        21        50     9        0.000000       -0.168918         1    ;  uncertainty k = 0.390695
        18        19        21        50     9      180.000000        5.695522         2    ;  uncertainty k = 0.674905
        18        19        21        50     9        0.000000        1.129293         3    ;  uncertainty k = 0.356557
        18        19        21        50     9      180.000000        1.505167         4    ;  uncertainty k = 0.216214
        18        24        23        22     9        0.000000       -0.242508         1    ;  uncertainty k = 0.315737
        18        24        23        22     9      180.000000        9.681246         2    ;  uncertainty k = 0.496020
        18        24        23        22     9        0.000000        0.240132         3    ;  uncertainty k = 0.161668
        18        24        23        22     9      180.000000        1.271249         4    ;  uncertainty k = 0.330409
        18        24        23        52     9        0.000000       -0.007148         1    ;  uncertainty k = 0.345797
        18        24        23        52     9      180.000000        6.393420         2    ;  uncertainty k = 0.363299
        18        24        23        52     9        0.000000        1.235598         3    ;  uncertainty k = 0.195907
        18        24        23        52     9      180.000000        1.608512         4    ;  uncertainty k = 0.191460
        18        24        25        26     9        0.000000       -1.535069         1    ;  uncertainty k = 0.563416
        18        24        25        26     9      180.000000        4.499715         2    ;  uncertainty k = 0.535585
        18        24        25        26     9        0.000000        0.637687         3    ;  uncertainty k = 0.351002
        18        24        25        26     9      180.000000       -0.090463         4    ;  uncertainty k = 0.183190
        18        24        25        29     9        0.000000       -1.535069         1    ;  uncertainty k = 0.563416
        18        24        25        29     9      180.000000        4.499715         2    ;  uncertainty k = 0.535585
        18        24        25        29     9        0.000000        0.637687         3    ;  uncertainty k = 0.351002
        18        24        25        29     9      180.000000       -0.090463         4    ;  uncertainty k = 0.183190
        19        18        24        23     9        0.000000       -0.242351         1    ;  uncertainty k = 0.420152
        19        18        24        23     9      180.000000        6.983637         2    ;  uncertainty k = 0.869640
        19        18        24        23     9        0.000000        0.325219         3    ;  uncertainty k = 0.349953
        19        18        24        23     9      180.000000        1.307286         4    ;  uncertainty k = 0.335099
        19        18        24        25     9        0.000000        0.337460         1    ;  uncertainty k = 0.391009
        19        18        24        25     9      180.000000       10.376661         2    ;  uncertainty k = 0.372710
        19        18        24        25     9        0.000000        1.330823         3    ;  uncertainty k = 0.417773
        19        18        24        25     9      180.000000        1.431413         4    ;  uncertainty k = 0.199546
        19        21        22        23     9        0.000000       -0.033963         1    ;  uncertainty k = 0.110226
        19        21        22        23     9      180.000000       13.984025         2    ;  uncertainty k = 0.340845
        19        21        22        23     9        0.000000       -1.042557         3    ;  uncertainty k = 0.357764
        19        21        22        23     9      180.000000        0.802609         4    ;  uncertainty k = 0.247483
        19        21        22        51     9        0.000000       -0.104379         1    ;  uncertainty k = 0.141872
        19        21        22        51     9      180.000000        7.264410         2    ;  uncertainty k = 0.340044
        19        21        22        51     9        0.000000        1.287730         3    ;  uncertainty k = 0.202339
        19        21        22        51     9      180.000000        1.653500         4    ;  uncertainty k = 0.150967
        20        19        18        24     9        0.000000        0.033254         1    ;  uncertainty k = 0.304862
        20        19        18        24     9      180.000000       11.302610         2    ;  uncertainty k = 0.302059
        20        19        18        24     9        0.000000        1.679241         3    ;  uncertainty k = 0.164696
        20        19        18        24     9      180.000000        1.555515         4    ;  uncertainty k = 0.157671
        20        19        21        22     9        0.000000       -0.080232         1    ;  uncertainty k = 0.461474
        20        19        21        22     9      180.000000       13.203682         2    ;  uncertainty k = 0.340325
        20        19        21        22     9        0.000000        1.295972         3    ;  uncertainty k = 0.165134
        20        19        21        22     9      180.000000        1.523069         4    ;  uncertainty k = 0.233966
        20        19        21        50     9        0.000000       -0.128834         1    ;  uncertainty k = 0.456012
        20        19        21        50     9      180.000000        9.556552         2    ;  uncertainty k = 0.491147
        20        19        21        50     9        0.000000        0.767278         3    ;  uncertainty k = 0.273034
        20        19        21        50     9      180.000000        1.024642         4    ;  uncertainty k = 0.200947
        21        19        18        24     9        0.000000       -0.325541         1    ;  uncertainty k = 0.355388
        21        19        18        24     9      180.000000        6.052960         2    ;  uncertainty k = 0.864094
        21        19        18        24     9        0.000000        0.684668         3    ;  uncertainty k = 0.181781
        21        19        18        24     9      180.000000        1.492448         4    ;  uncertainty k = 0.353261
        21        22        23        24     9        0.000000       -0.096416         1    ;  uncertainty k = 0.180639
        21        22        23        24     9      180.000000       13.532949         2    ;  uncertainty k = 0.268821
        21        22        23        24     9        0.000000       -0.934273         3    ;  uncertainty k = 0.410646
        21        22        23        24     9      180.000000        0.824229         4    ;  uncertainty k = 0.239882
        21        22        23        52     9        0.000000        0.090918         1    ;  uncertainty k = 0.138952
        21        22        23        52     9      180.000000        7.803070         2    ;  uncertainty k = 0.340548
        21        22        23        52     9        0.000000        1.340932         3    ;  uncertainty k = 0.288750
        21        22        23        52     9      180.000000        1.895629         4    ;  uncertainty k = 0.190611
        22        23        24        25     9        0.000000        0.460449         1    ;  uncertainty k = 0.322983
        22        23        24        25     9      180.000000       11.387678         2    ;  uncertainty k = 0.346993
        22        23        24        25     9        0.000000        0.982542         3    ;  uncertainty k = 0.164036
        22        23        24        25     9      180.000000        1.624026         4    ;  uncertainty k = 0.138288
        23        22        21        50     9        0.000000        0.058868         1    ;  uncertainty k = 0.276257
        23        22        21        50     9      180.000000        7.716329         2    ;  uncertainty k = 0.326791
        23        22        21        50     9        0.000000        1.437490         3    ;  uncertainty k = 0.272563
        23        22        21        50     9      180.000000        1.759669         4    ;  uncertainty k = 0.126329
        23        24        25        26     9        0.000000        2.394481         1    ;  uncertainty k = 0.740964
        23        24        25        26     9      180.000000        4.329586         2    ;  uncertainty k = 0.263950
        23        24        25        26     9        0.000000        0.391713         3    ;  uncertainty k = 0.190597
        23        24        25        26     9      180.000000        0.083730         4    ;  uncertainty k = 0.150415
        23        24        25        29     9        0.000000        2.394481         1    ;  uncertainty k = 0.740964
        23        24        25        29     9      180.000000        4.329586         2    ;  uncertainty k = 0.263950
        23        24        25        29     9        0.000000        0.391713         3    ;  uncertainty k = 0.190597
        23        24        25        29     9      180.000000        0.083730         4    ;  uncertainty k = 0.150415
        24        23        22        51     9        0.000000       -0.010723         1    ;  uncertainty k = 0.237400
        24        23        22        51     9      180.000000        7.958978         2    ;  uncertainty k = 0.442749
        24        23        22        51     9        0.000000        1.209101         3    ;  uncertainty k = 0.164443
        24        23        22        51     9      180.000000        1.723739         4    ;  uncertainty k = 0.144208
        24        25        26        27     9        0.000000        0.797559         1    ;  uncertainty k = 2.309877
        24        25        26        27     9      180.000000       14.114446         2    ;  uncertainty k = 0.418682
        24        25        26        27     9        0.000000        1.402880         3    ;  uncertainty k = 0.442527
        24        25        26        27     9      180.000000        0.112613         4    ;  uncertainty k = 0.206946
        24        25        29        28     9        0.000000        0.797559         1    ;  uncertainty k = 2.309877
        24        25        29        28     9      180.000000       14.114446         2    ;  uncertainty k = 0.418682
        24        25        29        28     9        0.000000        1.402880         3    ;  uncertainty k = 0.442527
        24        25        29        28     9      180.000000        0.112613         4    ;  uncertainty k = 0.206946
        25        24        23        52     9        0.000000        0.135211         1    ;  uncertainty k = 0.398577
        25        24        23        52     9      180.000000        8.519176         2    ;  uncertainty k = 0.273746
        25        24        23        52     9        0.000000        0.803950         3    ;  uncertainty k = 0.224881
        25        24        23        52     9      180.000000        1.348903         4    ;  uncertainty k = 0.152778
        25        26        27        28     9        0.000000        0.015899         1    ;  uncertainty k = 0.518603
        25        26        27        28     9      180.000000       24.370143         2    ;  uncertainty k = 0.366584
        25        26        27        28     9        0.000000       -9.715998         3    ;  uncertainty k = 1.915613
        25        26        27        28     9      180.000000        2.426696         4    ;  uncertainty k = 0.655510
        25        26        27        53     9        0.000000        0.232294         1    ;  uncertainty k = 0.741580
        25        26        27        53     9      180.000000       22.028694         2    ;  uncertainty k = 0.487024
        25        26        27        53     9        0.000000        1.455895         3    ;  uncertainty k = 0.397708
        25        26        27        53     9      180.000000        1.220382         4    ;  uncertainty k = 0.604170
        25        29        28        27     9        0.000000        0.015899         1    ;  uncertainty k = 0.518603
        25        29        28        27     9      180.000000       24.370143         2    ;  uncertainty k = 0.366584
        25        29        28        27     9        0.000000       -9.715998         3    ;  uncertainty k = 1.915613
        25        29        28        27     9      180.000000        2.426696         4    ;  uncertainty k = 0.655510
        25        29        28        54     9        0.000000        0.232294         1    ;  uncertainty k = 0.741580
        25        29        28        54     9      180.000000       22.028694         2    ;  uncertainty k = 0.487024
        25        29        28        54     9        0.000000        1.455895         3    ;  uncertainty k = 0.397708
        25        29        28        54     9      180.000000        1.220382         4    ;  uncertainty k = 0.604170
        26        25        29        28     9        0.000000       -0.822391         1    ;  uncertainty k = 0.769863
        26        25        29        28     9      180.000000       22.038729         2    ;  uncertainty k = 0.271382
        26        25        29        28     9        0.000000       -8.305140         3    ;  uncertainty k = 1.269833
        26        25        29        28     9      180.000000        1.298759         4    ;  uncertainty k = 0.596553
        26        27        28        29     9        0.000000       -0.480158         1    ;  uncertainty k = 0.926462
        26        27        28        29     9      180.000000       16.735216         2    ;  uncertainty k = 1.309662
        26        27        28        29     9        0.000000      -12.155219         3    ;  uncertainty k = 1.939945
        26        27        28        29     9      180.000000        1.991293         4    ;  uncertainty k = 0.750423
        26        27        28        54     9        0.000000        0.154897         1    ;  uncertainty k = 0.970262
        26        27        28        54     9      180.000000       11.842300         2    ;  uncertainty k = 0.614370
        26        27        28        54     9        0.000000        0.922189         3    ;  uncertainty k = 0.757887
        26        27        28        54     9      180.000000        0.630945         4    ;  uncertainty k = 0.172002
        27        26        25        29     9        0.000000       -0.822391         1    ;  uncertainty k = 0.769863
        27        26        25        29     9      180.000000       22.038729         2    ;  uncertainty k = 0.271382
        27        26        25        29     9        0.000000       -8.305140         3    ;  uncertainty k = 1.269833
        27        26        25        29     9      180.000000        1.298759         4    ;  uncertainty k = 0.596553
        29        28        27        53     9        0.000000        0.154897         1    ;  uncertainty k = 0.970262
        29        28        27        53     9      180.000000       11.842300         2    ;  uncertainty k = 0.614370
        29        28        27        53     9        0.000000        0.922189         3    ;  uncertainty k = 0.757887
        29        28        27        53     9      180.000000        0.630945         4    ;  uncertainty k = 0.172002
        30         4         3        39     9        0.000000        0.227682         1    ;  uncertainty k = 0.483052
        30         4         3        39     9      180.000000        5.661205         2    ;  uncertainty k = 1.091346
        30         4         3        39     9        0.000000        0.621642         3    ;  uncertainty k = 0.334537
        30         4         3        39     9      180.000000        0.839080         4    ;  uncertainty k = 0.140395
        30        31        32        33     9        0.000000        3.926328         1    ;  uncertainty k = 2.045256
        30        31        32        33     9      180.000000       -8.428539         2    ;  uncertainty k = 0.609452
        30        31        32        33     9        0.000000        3.388437         3    ;  uncertainty k = 0.334422
        30        31        32        33     9      180.000000       -0.127246         4    ;  uncertainty k = 0.351537
        30        31        32        57     9        0.000000        3.539923         1    ;  uncertainty k = 1.131643
        30        31        32        57     9      180.000000       -3.111867         2    ;  uncertainty k = 0.649472
        30        31        32        57     9        0.000000        0.170259         3    ;  uncertainty k = 0.220614
        30        31        32        57     9      180.000000        0.199950         4    ;  uncertainty k = 0.165663
        30        31        32        58     9        0.000000        3.539923         1    ;  uncertainty k = 1.131643
        30        31        32        58     9      180.000000       -3.111867         2    ;  uncertainty k = 0.649472
        30        31        32        58     9        0.000000        0.170259         3    ;  uncertainty k = 0.220614
        30        31        32        58     9      180.000000        0.199950         4    ;  uncertainty k = 0.165663
        30        35        34        33     9        0.000000        3.926328         1    ;  uncertainty k = 2.045256
        30        35        34        33     9      180.000000       -8.428539         2    ;  uncertainty k = 0.609452
        30        35        34        33     9        0.000000        3.388437         3    ;  uncertainty k = 0.334422
        30        35        34        33     9      180.000000       -0.127246         4    ;  uncertainty k = 0.351537
        30        35        34        59     9        0.000000        3.539923         1    ;  uncertainty k = 1.131643
        30        35        34        59     9      180.000000       -3.111867         2    ;  uncertainty k = 0.649472
        30        35        34        59     9        0.000000        0.170259         3    ;  uncertainty k = 0.220614
        30        35        34        59     9      180.000000        0.199950         4    ;  uncertainty k = 0.165663
        30        35        34        60     9        0.000000        3.539923         1    ;  uncertainty k = 1.131643
        30        35        34        60     9      180.000000       -3.111867         2    ;  uncertainty k = 0.649472
        30        35        34        60     9        0.000000        0.170259         3    ;  uncertainty k = 0.220614
        30        35        34        60     9      180.000000        0.199950         4    ;  uncertainty k = 0.165663
        31        30        35        34     9        0.000000       -7.061942         1    ;  uncertainty k = 2.436882
        31        30        35        34     9      180.000000        1.141621         2    ;  uncertainty k = 0.728052
        31        30        35        34     9        0.000000        1.015631         3    ;  uncertainty k = 0.170882
        31        30        35        34     9      180.000000       -0.472205         4    ;  uncertainty k = 0.142569
        31        30        35        61     9        0.000000       -6.851642         1    ;  uncertainty k = 1.546715
        31        30        35        61     9      180.000000        0.919856         2    ;  uncertainty k = 0.252482
        31        30        35        61     9        0.000000        0.958983         3    ;  uncertainty k = 0.169780
        31        30        35        61     9      180.000000       -0.146644         4    ;  uncertainty k = 0.132685
        31        30        35        62     9        0.000000       -6.851642         1    ;  uncertainty k = 1.546715
        31        30        35        62     9      180.000000        0.919856         2    ;  uncertainty k = 0.252482
        31        30        35        62     9        0.000000        0.958983         3    ;  uncertainty k = 0.169780
        31        30        35        62     9      180.000000       -0.146644         4    ;  uncertainty k = 0.132685
        31        32        33        34     9        0.000000       -3.977836         1    ;  uncertainty k = 1.402133
        31        32        33        34     9      180.000000       -0.211281         2    ;  uncertainty k = 0.760672
        31        32        33        34     9        0.000000        0.776181         3    ;  uncertainty k = 0.357898
        31        32        33        34     9      180.000000       -0.320119         4    ;  uncertainty k = 0.260008
        32        31        30        35     9        0.000000       -7.061942         1    ;  uncertainty k = 2.436882
        32        31        30        35     9      180.000000        1.141621         2    ;  uncertainty k = 0.728052
        32        31        30        35     9        0.000000        1.015631         3    ;  uncertainty k = 0.170882
        32        31        30        35     9      180.000000       -0.472205         4    ;  uncertainty k = 0.142569
        32        33        34        35     9        0.000000       -3.977836         1    ;  uncertainty k = 1.402133
        32        33        34        35     9      180.000000       -0.211281         2    ;  uncertainty k = 0.760672
        32        33        34        35     9        0.000000        0.776181         3    ;  uncertainty k = 0.357898
        32        33        34        35     9      180.000000       -0.320119         4    ;  uncertainty k = 0.260008
        32        33        34        59     9        0.000000       -5.913789         1    ;  uncertainty k = 1.927688
        32        33        34        59     9      180.000000        0.652625         2    ;  uncertainty k = 0.226997
        32        33        34        59     9        0.000000        0.770207         3    ;  uncertainty k = 0.185156
        32        33        34        59     9      180.000000       -0.668888         4    ;  uncertainty k = 0.157586
        32        33        34        60     9        0.000000       -5.913789         1    ;  uncertainty k = 1.927688
        32        33        34        60     9      180.000000        0.652625         2    ;  uncertainty k = 0.226997
        32        33        34        60     9        0.000000        0.770207         3    ;  uncertainty k = 0.185156
        32        33        34        60     9      180.000000       -0.668888         4    ;  uncertainty k = 0.157586
        33        32        31        55     9        0.000000        1.475263         1    ;  uncertainty k = 0.577367
        33        32        31        55     9      180.000000       -1.257139         2    ;  uncertainty k = 0.741599
        33        32        31        55     9        0.000000        0.906696         3    ;  uncertainty k = 0.120897
        33        32        31        55     9      180.000000        0.312454         4    ;  uncertainty k = 0.277392
        33        32        31        56     9        0.000000        1.475263         1    ;  uncertainty k = 0.577367
        33        32        31        56     9      180.000000       -1.257139         2    ;  uncertainty k = 0.741599
        33        32        31        56     9        0.000000        0.906696         3    ;  uncertainty k = 0.120897
        33        32        31        56     9      180.000000        0.312454         4    ;  uncertainty k = 0.277392
        33        34        35        61     9        0.000000        1.475263         1    ;  uncertainty k = 0.577367
        33        34        35        61     9      180.000000       -1.257139         2    ;  uncertainty k = 0.741599
        33        34        35        61     9        0.000000        0.906696         3    ;  uncertainty k = 0.120897
        33        34        35        61     9      180.000000        0.312454         4    ;  uncertainty k = 0.277392
        33        34        35        62     9        0.000000        1.475263         1    ;  uncertainty k = 0.577367
        33        34        35        62     9      180.000000       -1.257139         2    ;  uncertainty k = 0.741599
        33        34        35        62     9        0.000000        0.906696         3    ;  uncertainty k = 0.120897
        33        34        35        62     9      180.000000        0.312454         4    ;  uncertainty k = 0.277392
        34        33        32        57     9        0.000000       -5.913789         1    ;  uncertainty k = 1.927688
        34        33        32        57     9      180.000000        0.652625         2    ;  uncertainty k = 0.226997
        34        33        32        57     9        0.000000        0.770207         3    ;  uncertainty k = 0.185156
        34        33        32        57     9      180.000000       -0.668888         4    ;  uncertainty k = 0.157586
        34        33        32        58     9        0.000000       -5.913789         1    ;  uncertainty k = 1.927688
        34        33        32        58     9      180.000000        0.652625         2    ;  uncertainty k = 0.226997
        34        33        32        58     9        0.000000        0.770207         3    ;  uncertainty k = 0.185156
        34        33        32        58     9      180.000000       -0.668888         4    ;  uncertainty k = 0.157586
        35        30        31        55     9        0.000000       -6.851642         1    ;  uncertainty k = 1.546715
        35        30        31        55     9      180.000000        0.919856         2    ;  uncertainty k = 0.252482
        35        30        31        55     9        0.000000        0.958983         3    ;  uncertainty k = 0.169780
        35        30        31        55     9      180.000000       -0.146644         4    ;  uncertainty k = 0.132685
        35        30        31        56     9        0.000000       -6.851642         1    ;  uncertainty k = 1.546715
        35        30        31        56     9      180.000000        0.919856         2    ;  uncertainty k = 0.252482
        35        30        31        56     9        0.000000        0.958983         3    ;  uncertainty k = 0.169780
        35        30        31        56     9      180.000000       -0.146644         4    ;  uncertainty k = 0.132685
        40         9        10        42     9        0.000000        0.359872         1    ;  uncertainty k = 0.316166
        40         9        10        42     9      180.000000       -0.360044         2    ;  uncertainty k = 0.197279
        40         9        10        42     9        0.000000        0.364903         3    ;  uncertainty k = 0.128583
        40         9        10        42     9      180.000000       -0.036803         4    ;  uncertainty k = 0.081429
        41         9        10        42     9        0.000000        0.359872         1    ;  uncertainty k = 0.316166
        41         9        10        42     9      180.000000       -0.360044         2    ;  uncertainty k = 0.197279
        41         9        10        42     9        0.000000        0.364903         3    ;  uncertainty k = 0.128583
        41         9        10        42     9      180.000000       -0.036803         4    ;  uncertainty k = 0.081429
        42        10        11        43     9        0.000000        0.423998         1    ;  uncertainty k = 0.297943
        42        10        11        43     9      180.000000       -0.322771         2    ;  uncertainty k = 0.253711
        42        10        11        43     9        0.000000        0.343158         3    ;  uncertainty k = 0.128710
        42        10        11        43     9      180.000000       -0.041305         4    ;  uncertainty k = 0.061986
        42        10        11        44     9        0.000000        0.423998         1    ;  uncertainty k = 0.297943
        42        10        11        44     9      180.000000       -0.322771         2    ;  uncertainty k = 0.253711
        42        10        11        44     9        0.000000        0.343158         3    ;  uncertainty k = 0.128710
        42        10        11        44     9      180.000000       -0.041305         4    ;  uncertainty k = 0.061986
        42        10        14        47     9        0.000000        3.534566         1    ;  uncertainty k = 1.183407
        42        10        14        47     9      180.000000       -0.219654         2    ;  uncertainty k = 0.641097
        42        10        14        47     9        0.000000        0.578188         3    ;  uncertainty k = 0.579178
        42        10        14        47     9      180.000000        0.212498         4    ;  uncertainty k = 0.291708
        45        13        14        47     9        0.000000        0.424000         1    ;  uncertainty k = 0.297943
        45        13        14        47     9      180.000000       -0.322771         2    ;  uncertainty k = 0.253710
        45        13        14        47     9        0.000000        0.343158         3    ;  uncertainty k = 0.128710
        45        13        14        47     9      180.000000       -0.041305         4    ;  uncertainty k = 0.061986
        46        13        14        47     9        0.000000        0.424000         1    ;  uncertainty k = 0.297943
        46        13        14        47     9      180.000000       -0.322771         2    ;  uncertainty k = 0.253710
        46        13        14        47     9        0.000000        0.343158         3    ;  uncertainty k = 0.128710
        46        13        14        47     9      180.000000       -0.041305         4    ;  uncertainty k = 0.061986
        47        14        15        48     9        0.000000        0.359873         1    ;  uncertainty k = 0.316165
        47        14        15        48     9      180.000000       -0.360044         2    ;  uncertainty k = 0.197281
        47        14        15        48     9        0.000000        0.364903         3    ;  uncertainty k = 0.128582
        47        14        15        48     9      180.000000       -0.036803         4    ;  uncertainty k = 0.081429
        47        14        15        49     9        0.000000        0.359873         1    ;  uncertainty k = 0.316165
        47        14        15        49     9      180.000000       -0.360044         2    ;  uncertainty k = 0.197281
        47        14        15        49     9        0.000000        0.364903         3    ;  uncertainty k = 0.128582
        47        14        15        49     9      180.000000       -0.036803         4    ;  uncertainty k = 0.081429
        50        21        22        51     9        0.000000       -0.020811         1    ;  uncertainty k = 0.168739
        50        21        22        51     9      180.000000        7.628630         2    ;  uncertainty k = 0.494067
        50        21        22        51     9        0.000000       -0.419007         3    ;  uncertainty k = 0.338955
        50        21        22        51     9      180.000000        0.009969         4    ;  uncertainty k = 0.203192
        51        22        23        52     9        0.000000        0.041837         1    ;  uncertainty k = 0.123335
        51        22        23        52     9      180.000000        7.941959         2    ;  uncertainty k = 0.372063
        51        22        23        52     9        0.000000       -0.460822         3    ;  uncertainty k = 0.327229
        51        22        23        52     9      180.000000        0.152785         4    ;  uncertainty k = 0.182743
        53        27        28        54     9        0.000000       -0.942648         1    ;  uncertainty k = 1.117582
        53        27        28        54     9      180.000000        4.272735         2    ;  uncertainty k = 0.760818
        53        27        28        54     9        0.000000        1.314863         3    ;  uncertainty k = 0.353594
        53        27        28        54     9      180.000000        0.150448         4    ;  uncertainty k = 0.159865
        55        31        32        57     9        0.000000       -2.424376         1    ;  uncertainty k = 1.127777
        55        31        32        57     9      180.000000        1.740277         2    ;  uncertainty k = 0.704097
        55        31        32        57     9        0.000000       -0.098922         3    ;  uncertainty k = 0.078349
        55        31        32        57     9      180.000000       -0.813228         4    ;  uncertainty k = 0.160122
        55        31        32        58     9        0.000000       -2.424376         1    ;  uncertainty k = 1.127777
        55        31        32        58     9      180.000000        1.740277         2    ;  uncertainty k = 0.704097
        55        31        32        58     9        0.000000       -0.098922         3    ;  uncertainty k = 0.078349
        55        31        32        58     9      180.000000       -0.813228         4    ;  uncertainty k = 0.160122
        56        31        32        57     9        0.000000       -2.424376         1    ;  uncertainty k = 1.127777
        56        31        32        57     9      180.000000        1.740277         2    ;  uncertainty k = 0.704097
        56        31        32        57     9        0.000000       -0.098922         3    ;  uncertainty k = 0.078349
        56        31        32        57     9      180.000000       -0.813228         4    ;  uncertainty k = 0.160122
        56        31        32        58     9        0.000000       -2.424376         1    ;  uncertainty k = 1.127777
        56        31        32        58     9      180.000000        1.740277         2    ;  uncertainty k = 0.704097
        56        31        32        58     9        0.000000       -0.098922         3    ;  uncertainty k = 0.078349
        56        31        32        58     9      180.000000       -0.813228         4    ;  uncertainty k = 0.160122
        59        34        35        61     9        0.000000       -2.424376         1    ;  uncertainty k = 1.127777
        59        34        35        61     9      180.000000        1.740277         2    ;  uncertainty k = 0.704097
        59        34        35        61     9        0.000000       -0.098922         3    ;  uncertainty k = 0.078349
        59        34        35        61     9      180.000000       -0.813228         4    ;  uncertainty k = 0.160122
        59        34        35        62     9        0.000000       -2.424376         1    ;  uncertainty k = 1.127777
        59        34        35        62     9      180.000000        1.740277         2    ;  uncertainty k = 0.704097
        59        34        35        62     9        0.000000       -0.098922         3    ;  uncertainty k = 0.078349
        59        34        35        62     9      180.000000       -0.813228         4    ;  uncertainty k = 0.160122
        60        34        35        61     9        0.000000       -2.424376         1    ;  uncertainty k = 1.127777
        60        34        35        61     9      180.000000        1.740277         2    ;  uncertainty k = 0.704097
        60        34        35        61     9        0.000000       -0.098922         3    ;  uncertainty k = 0.078349
        60        34        35        61     9      180.000000       -0.813228         4    ;  uncertainty k = 0.160122
        60        34        35        62     9        0.000000       -2.424376         1    ;  uncertainty k = 1.127777
        60        34        35        62     9      180.000000        1.740277         2    ;  uncertainty k = 0.704097
        60        34        35        62     9        0.000000       -0.098922         3    ;  uncertainty k = 0.078349
        60        34        35        62     9      180.000000       -0.813228         4    ;  uncertainty k = 0.160122

[ dihedrals ] ; impropers
;       ai        aj        ak        al funct           phase               k        pn
         2         1         3         7     4      180.000000       31.243861         2    ;  uncertainty k = 0.091956
         2         3         7         1     4      180.000000       31.243861         2    ;  uncertainty k = 0.091956
         2         7         1         3     4      180.000000       31.243861         2    ;  uncertainty k = 0.091956
         3         2         4        39     4      180.000000        1.207334         2    ;  uncertainty k = 0.873191
         3         4        39         2     4      180.000000        1.207334         2    ;  uncertainty k = 0.873191
         3        39         2         4     4      180.000000        1.207334         2    ;  uncertainty k = 0.873191
         4         3         5        30     4      180.000000       35.450054         2    ;  uncertainty k = 0.037357
         4         5        30         3     4      180.000000       35.450054         2    ;  uncertainty k = 0.037357
         4        30         3         5     4      180.000000       35.450054         2    ;  uncertainty k = 0.037357
         6         5         7         8     4      180.000000       42.189193         2    ;  uncertainty k = 0.068435
         6         7         8         5     4      180.000000       42.189193         2    ;  uncertainty k = 0.068435
         6         8         5         7     4      180.000000       42.189193         2    ;  uncertainty k = 0.068435
         8         6         9        15     4      180.000000        0.152022         2    ;  uncertainty k = 0.239816
         8         9        15         6     4      180.000000        0.152022         2    ;  uncertainty k = 0.239816
         8        15         6         9     4      180.000000        0.152022         2    ;  uncertainty k = 0.239816
        16        12        17        18     4      180.000000       52.212280         2    ;  uncertainty k = 0.071533
        16        17        18        12     4      180.000000       52.212280         2    ;  uncertainty k = 0.071533
        16        18        12        17     4      180.000000       52.212280         2    ;  uncertainty k = 0.071533
        18        16        19        24     4      180.000000        9.307072         2    ;  uncertainty k = 0.434424
        18        19        24        16     4      180.000000        9.307072         2    ;  uncertainty k = 0.434424
        18        24        16        19     4      180.000000        9.307072         2    ;  uncertainty k = 0.434424
        19        18        20        21     4      180.000000       15.115266         2    ;  uncertainty k = 0.210077
        19        20        21        18     4      180.000000       15.115266         2    ;  uncertainty k = 0.210077
        19        21        18        20     4      180.000000       15.115266         2    ;  uncertainty k = 0.210077
        21        19        22        50     4      180.000000        2.461870         2    ;  uncertainty k = 0.103991
        21        22        50        19     4      180.000000        2.461870         2    ;  uncertainty k = 0.103991
        21        50        19        22     4      180.000000        2.461870         2    ;  uncertainty k = 0.103991
        22        21        23        51     4      180.000000        4.937369         2    ;  uncertainty k = 0.112088
        22        23        51        21     4      180.000000        4.937369         2    ;  uncertainty k = 0.112088
        22        51        21        23     4      180.000000        4.937369         2    ;  uncertainty k = 0.112088
        23        22        24        52     4      180.000000        2.847064         2    ;  uncertainty k = 0.193191
        23        24        52        22     4      180.000000        2.847064         2    ;  uncertainty k = 0.193191
        23        52        22        24     4      180.000000        2.847064         2    ;  uncertainty k = 0.193191
        24        18        23        25     4      180.000000       12.584197         2    ;  uncertainty k = 0.129690
        24        23        25        18     4      180.000000       12.584197         2    ;  uncertainty k = 0.129690
        24        25        18        23     4      180.000000       12.584197         2    ;  uncertainty k = 0.129690
        27        26        28        53     4      180.000000        0.414726         2    ;  uncertainty k = 0.408832
        27        28        53        26     4      180.000000        0.414726         2    ;  uncertainty k = 0.408832
        27        53        26        28     4      180.000000        0.414726         2    ;  uncertainty k = 0.408832
        28        27        29        54     4      180.000000        0.414726         2    ;  uncertainty k = 0.408832
        28        29        54        27     4      180.000000        0.414726         2    ;  uncertainty k = 0.408832
        28        54        27        29     4      180.000000        0.414726         2    ;  uncertainty k = 0.408832

[ pairs ]
;       ai        aj funct
         1         4     1
         1         6     1
         1        39     1
         2         5     1
         2         8     1
         2        30     1
         3         6     1
         3        31     1
         3        35     1
         3        36     1
         3        37     1
         3        38     1
         4         7     1
         4         8     1
         4        32     1
         4        34     1
         4        55     1
         4        56     1
         4        61     1
         4        62     1
         5         9     1
         5        15     1
         5        31     1
         5        35     1
         5        39     1
         6        10     1
         6        14     1
         6        30     1
         6        40     1
         6        41     1
         6        48     1
         6        49     1
         7         9     1
         7        15     1
         7        36     1
         7        37     1
         7        38     1
         7        39     1
         8        11     1
         8        13     1
         8        42     1
         8        47     1
         9        12     1
         9        13     1
         9        43     1
         9        44     1
         9        47     1
         9        48     1
         9        49     1
        10        16     1
        10        45     1
        10        46     1
        10        48     1
        10        49     1
        11        15     1
        11        17     1
        11        18     1
        11        40     1
        11        41     1
        11        45     1
        11        46     1
        11        47     1
        12        15     1
        12        19     1
        12        24     1
        12        42     1
        12        47     1
        13        17     1
        13        18     1
        13        42     1
        13        43     1
        13        44     1
        13        48     1
        13        49     1
        14        16     1
        14        40     1
        14        41     1
        14        43     1
        14        44     1
        15        40     1
        15        41     1
        15        42     1
        15        45     1
        15        46     1
        16        20     1
        16        21     1
        16        23     1
        16        25     1
        16        43     1
        16        44     1
        16        45     1
        16        46     1
        17        19     1
        17        24     1
        18        22     1
        18        26     1
        18        29     1
        18        50     1
        18        52     1
        19        23     1
        19        25     1
        19        51     1
        20        22     1
        20        24     1
        20        50     1
        21        24     1
        21        52     1
        22        25     1
        23        26     1
        23        29     1
        23        50     1
        24        27     1
        24        28     1
        24        51     1
        25        52     1
        25        53     1
        25        54     1
        26        54     1
        29        53     1
        30        33     1
        30        39     1
        30        57     1
        30        58     1
        30        59     1
        30        60     1
        31        34     1
        31        61     1
        31        62     1
        32        35     1
        32        59     1
        32        60     1
        33        55     1
        33        56     1
        33        61     1
        33        62     1
        34        57     1
        34        58     1
        35        55     1
        35        56     1
        40        42     1
        41        42     1
        42        43     1
        42        44     1
        42        47     1
        45        47     1
        46        47     1
        47        48     1
        47        49     1
        50        51     1
        51        52     1
        53        54     1
        55        57     1
        55        58     1
        56        57     1
        56        58     1
        59        61     1
        59        62     1
        60        61     1
        60        62     1
