; ITP file created by ByteFF-joint-25, 2025-07-14 11:28:40.509678

[ atomtypes ]
;name           bonded.type        at.num        mass        charge   ptype           sigma         epsilon
 c0bf                                   6      0.0000       0.00000       A     3.39773e-01     4.50930e-01    ;  uncertainty sigma = 0.000007, epsilon = 0.000592
 c1bf                                   6      0.0000       0.00000       A     3.31511e-01     4.13145e-01    ;  uncertainty sigma = 0.000011, epsilon = 0.000579
 c2bf                                   6      0.0000       0.00000       A     3.31523e-01     4.13243e-01    ;  uncertainty sigma = 0.000013, epsilon = 0.000737
 c3bf                                   6      0.0000       0.00000       A     3.31511e-01     4.13145e-01    ;  uncertainty sigma = 0.000011, epsilon = 0.000579
 c4bf                                   6      0.0000       0.00000       A     3.39773e-01     4.50930e-01    ;  uncertainty sigma = 0.000007, epsilon = 0.000592
 n5bf                                   7      0.0000       0.00000       A     3.38407e-01     3.93685e-01    ;  uncertainty sigma = 0.000013, epsilon = 0.000791
 c6bf                                   6      0.0000       0.00000       A     3.31545e-01     4.13196e-01    ;  uncertainty sigma = 0.000018, epsilon = 0.000667
 n7bf                                   7      0.0000       0.00000       A     3.38407e-01     3.93685e-01    ;  uncertainty sigma = 0.000013, epsilon = 0.000791
 n8bf                                   7      0.0000       0.00000       A     3.18950e-01     8.99076e-01    ;  uncertainty sigma = 0.000052, epsilon = 0.003577
 c9bf                                   6      0.0000       0.00000       A     3.39774e-01     4.50953e-01    ;  uncertainty sigma = 0.000012, epsilon = 0.001229
 c10bf                                  6      0.0000       0.00000       A     3.39776e-01     4.51373e-01    ;  uncertainty sigma = 0.000009, epsilon = 0.000969
 c11bf                                  6      0.0000       0.00000       A     3.39785e-01     4.51242e-01    ;  uncertainty sigma = 0.000005, epsilon = 0.000650
 n12bf                                  7      0.0000       0.00000       A     3.18089e-01     6.83457e-01    ;  uncertainty sigma = 0.000019, epsilon = 0.001415
 c13bf                                  6      0.0000       0.00000       A     3.39785e-01     4.51242e-01    ;  uncertainty sigma = 0.000005, epsilon = 0.000651
 c14bf                                  6      0.0000       0.00000       A     3.39776e-01     4.51373e-01    ;  uncertainty sigma = 0.000009, epsilon = 0.000969
 c15bf                                  6      0.0000       0.00000       A     3.39774e-01     4.50953e-01    ;  uncertainty sigma = 0.000012, epsilon = 0.001229
 c16bf                                  6      0.0000       0.00000       A     3.31476e-01     4.13292e-01    ;  uncertainty sigma = 0.000008, epsilon = 0.001485
 o17bf                                  8      0.0000       0.00000       A     3.04816e-01     6.12455e-01    ;  uncertainty sigma = 0.000014, epsilon = 0.001156
 c18bf                                  6      0.0000       0.00000       A     3.31596e-01     4.13741e-01    ;  uncertainty sigma = 0.000037, epsilon = 0.000876
 n19bf                                  7      0.0000       0.00000       A     3.38376e-01     3.93211e-01    ;  uncertainty sigma = 0.000017, epsilon = 0.000901
 c20bf                                  6      0.0000       0.00000       A     3.31517e-01     4.13249e-01    ;  uncertainty sigma = 0.000009, epsilon = 0.000716
 c21bf                                  6      0.0000       0.00000       A     3.31519e-01     4.13260e-01    ;  uncertainty sigma = 0.000008, epsilon = 0.000607
 c22bf                                  6      0.0000       0.00000       A     3.31551e-01     4.13585e-01    ;  uncertainty sigma = 0.000011, epsilon = 0.001015
 c23bf                                  6      0.0000       0.00000       A     3.31577e-01     4.12774e-01    ;  uncertainty sigma = 0.000017, epsilon = 0.002168
 n24bf                                  7      0.0000       0.00000       A     3.20627e-01     8.54160e-01    ;  uncertainty sigma = 0.000047, epsilon = 0.004544
 n25bf                                  7      0.0000       0.00000       A     3.38413e-01     3.93618e-01    ;  uncertainty sigma = 0.000008, epsilon = 0.000654
 c26bf                                  6      0.0000       0.00000       A     3.31537e-01     4.13587e-01    ;  uncertainty sigma = 0.000007, epsilon = 0.000835
 c27bf                                  6      0.0000       0.00000       A     3.31537e-01     4.13587e-01    ;  uncertainty sigma = 0.000007, epsilon = 0.000835
 n28bf                                  7      0.0000       0.00000       A     3.38413e-01     3.93618e-01    ;  uncertainty sigma = 0.000008, epsilon = 0.000654
 h29bf                                  1      0.0000       0.00000       A     2.60034e-01     8.66332e-02    ;  uncertainty sigma = 0.000007, epsilon = 0.000537
 h30bf                                  1      0.0000       0.00000       A     2.60034e-01     8.66332e-02    ;  uncertainty sigma = 0.000007, epsilon = 0.000537
 h31bf                                  1      0.0000       0.00000       A     2.60034e-01     8.66332e-02    ;  uncertainty sigma = 0.000007, epsilon = 0.000537
 h32bf                                  1      0.0000       0.00000       A     2.62580e-01     6.71311e-02    ;  uncertainty sigma = 0.000016, epsilon = 0.000304
 h33bf                                  1      0.0000       0.00000       A     2.60034e-01     8.66332e-02    ;  uncertainty sigma = 0.000007, epsilon = 0.000537
 h34bf                                  1      0.0000       0.00000       A     2.60034e-01     8.66332e-02    ;  uncertainty sigma = 0.000007, epsilon = 0.000537
 h35bf                                  1      0.0000       0.00000       A     2.60034e-01     8.66332e-02    ;  uncertainty sigma = 0.000007, epsilon = 0.000537
 h36bf                                  1      0.0000       0.00000       A     2.42199e-01     8.66324e-02    ;  uncertainty sigma = 0.000024, epsilon = 0.001250
 h37bf                                  1      0.0000       0.00000       A     2.42199e-01     8.66324e-02    ;  uncertainty sigma = 0.000024, epsilon = 0.001250
 h38bf                                  1      0.0000       0.00000       A     2.59994e-01     8.68892e-02    ;  uncertainty sigma = 0.000026, epsilon = 0.000553
 h39bf                                  1      0.0000       0.00000       A     2.42194e-01     8.66543e-02    ;  uncertainty sigma = 0.000021, epsilon = 0.000863
 h40bf                                  1      0.0000       0.00000       A     2.42194e-01     8.66543e-02    ;  uncertainty sigma = 0.000021, epsilon = 0.000863
 h41bf                                  1      0.0000       0.00000       A     2.42194e-01     8.66545e-02    ;  uncertainty sigma = 0.000021, epsilon = 0.000863
 h42bf                                  1      0.0000       0.00000       A     2.42194e-01     8.66545e-02    ;  uncertainty sigma = 0.000021, epsilon = 0.000863
 h43bf                                  1      0.0000       0.00000       A     2.59994e-01     8.68892e-02    ;  uncertainty sigma = 0.000026, epsilon = 0.000553
 h44bf                                  1      0.0000       0.00000       A     2.42199e-01     8.66324e-02    ;  uncertainty sigma = 0.000024, epsilon = 0.001250
 h45bf                                  1      0.0000       0.00000       A     2.42199e-01     8.66324e-02    ;  uncertainty sigma = 0.000024, epsilon = 0.001250
 h46bf                                  1      0.0000       0.00000       A     2.53640e-01     6.70264e-02    ;  uncertainty sigma = 0.000012, epsilon = 0.000423
 h47bf                                  1      0.0000       0.00000       A     2.62564e-01     6.71394e-02    ;  uncertainty sigma = 0.000013, epsilon = 0.000566
 h48bf                                  1      0.0000       0.00000       A     2.62556e-01     6.72308e-02    ;  uncertainty sigma = 0.000010, epsilon = 0.000664
 h49bf                                  1      0.0000       0.00000       A     2.53604e-01     6.70807e-02    ;  uncertainty sigma = 0.000028, epsilon = 0.000600
 h50bf                                  1      0.0000       0.00000       A     2.53604e-01     6.70806e-02    ;  uncertainty sigma = 0.000028, epsilon = 0.000600

[ moleculetype ]
;name             nrexcl
 MOL                   3

[ atoms ]
;       nr            type      resi   res      atom      cgnr      charge          mass ; qtot
         1            c0bf         1   UNL        c0         1    -0.15162       12.0110 ; qtot   -0.152
         2            c1bf         1   UNL        c1         2     0.48649       12.0110 ; qtot    0.335
         3            c2bf         1   UNL        c2         3    -0.41183       12.0110 ; qtot   -0.077
         4            c3bf         1   UNL        c3         4     0.48649       12.0110 ; qtot    0.410
         5            c4bf         1   UNL        c4         5    -0.15162       12.0110 ; qtot    0.258
         6            n5bf         1   UNL        n5         6    -0.77862       14.0070 ; qtot   -0.521
         7            c6bf         1   UNL        c6         7     0.90706       12.0110 ; qtot    0.386
         8            n7bf         1   UNL        n7         8    -0.77862       14.0070 ; qtot   -0.392
         9            n8bf         1   UNL        n8         9    -0.79085       14.0070 ; qtot   -1.183
        10            c9bf         1   UNL        c9        10     0.23390       12.0110 ; qtot   -0.949
        11           c10bf         1   UNL       c10        11    -0.09725       12.0110 ; qtot   -1.046
        12           c11bf         1   UNL       c11        12     0.11360       12.0110 ; qtot   -0.933
        13           n12bf         1   UNL       n12        13    -0.46783       14.0070 ; qtot   -1.401
        14           c13bf         1   UNL       c13        14     0.11360       12.0110 ; qtot   -1.287
        15           c14bf         1   UNL       c14        15    -0.09725       12.0110 ; qtot   -1.384
        16           c15bf         1   UNL       c15        16     0.23390       12.0110 ; qtot   -1.150
        17           c16bf         1   UNL       c16        17     0.59665       12.0110 ; qtot   -0.554
        18           o17bf         1   UNL       o17        18    -0.58937       15.9990 ; qtot   -1.143
        19           c18bf         1   UNL       c18        19     0.38694       12.0110 ; qtot   -0.756
        20           n19bf         1   UNL       n19        20    -0.65307       14.0070 ; qtot   -1.409
        21           c20bf         1   UNL       c20        21     0.40084       12.0110 ; qtot   -1.008
        22           c21bf         1   UNL       c21        22    -0.22087       12.0110 ; qtot   -1.229
        23           c22bf         1   UNL       c22        23    -0.08086       12.0110 ; qtot   -1.310
        24           c23bf         1   UNL       c23        24    -0.05679       12.0110 ; qtot   -1.367
        25           n24bf         1   UNL       n24        25     0.30859       14.0070 ; qtot   -1.058
        26           n25bf         1   UNL       n25        26    -0.47115       14.0070 ; qtot   -1.530
        27           c26bf         1   UNL       c26        27     0.20564       12.0110 ; qtot   -1.324
        28           c27bf         1   UNL       c27        28     0.20564       12.0110 ; qtot   -1.118
        29           n28bf         1   UNL       n28        29    -0.47115       14.0070 ; qtot   -1.589
        30           h29bf         1   UNL       h29        30     0.05868        1.0080 ; qtot   -1.531
        31           h30bf         1   UNL       h30        31     0.05868        1.0080 ; qtot   -1.472
        32           h31bf         1   UNL       h31        32     0.05868        1.0080 ; qtot   -1.413
        33           h32bf         1   UNL       h32        33     0.15114        1.0080 ; qtot   -1.262
        34           h33bf         1   UNL       h33        34     0.05868        1.0080 ; qtot   -1.204
        35           h34bf         1   UNL       h34        35     0.05868        1.0080 ; qtot   -1.145
        36           h35bf         1   UNL       h35        36     0.05868        1.0080 ; qtot   -1.086
        37           h36bf         1   UNL       h36        37     0.05891        1.0080 ; qtot   -1.027
        38           h37bf         1   UNL       h37        38     0.05891        1.0080 ; qtot   -0.968
        39           h38bf         1   UNL       h38        39     0.07237        1.0080 ; qtot   -0.896
        40           h39bf         1   UNL       h39        40     0.06162        1.0080 ; qtot   -0.834
        41           h40bf         1   UNL       h40        41     0.06162        1.0080 ; qtot   -0.773
        42           h41bf         1   UNL       h41        42     0.06162        1.0080 ; qtot   -0.711
        43           h42bf         1   UNL       h42        43     0.06162        1.0080 ; qtot   -0.650
        44           h43bf         1   UNL       h43        44     0.07237        1.0080 ; qtot   -0.577
        45           h44bf         1   UNL       h44        45     0.05891        1.0080 ; qtot   -0.518
        46           h45bf         1   UNL       h45        46     0.05891        1.0080 ; qtot   -0.459
        47           h46bf         1   UNL       h46        47     0.02995        1.0080 ; qtot   -0.429
        48           h47bf         1   UNL       h47        48     0.15003        1.0080 ; qtot   -0.279
        49           h48bf         1   UNL       h48        49     0.16946        1.0080 ; qtot   -0.110
        50           h49bf         1   UNL       h49        50     0.05496        1.0080 ; qtot   -0.055
        51           h50bf         1   UNL       h50        51     0.05493        1.0080 ; qtot    0.000

[ bonds ]
;       ai        aj funct               r               k
         1         2     1        0.150631   258312.636768    ;  uncertainty r = 0.000036, k = 5.578436
         1        30     1        0.109444   310537.557666    ;  uncertainty r = 0.000015, k = 1.598088
         1        31     1        0.109444   310537.557666    ;  uncertainty r = 0.000015, k = 1.598088
         1        32     1        0.109444   310537.557666    ;  uncertainty r = 0.000015, k = 1.598088
         2         3     1        0.140287   430446.109863    ;  uncertainty r = 0.000066, k = 4.969217
         2         8     1        0.134238   464612.770313    ;  uncertainty r = 0.000041, k = 6.904087
         3         4     1        0.140287   430446.109863    ;  uncertainty r = 0.000066, k = 4.969217
         3        33     1        0.108737   344393.252734    ;  uncertainty r = 0.000026, k = 3.476286
         4         5     1        0.150631   258312.636768    ;  uncertainty r = 0.000036, k = 5.578436
         4         6     1        0.134238   464612.770313    ;  uncertainty r = 0.000041, k = 6.904087
         5        34     1        0.109444   310537.557666    ;  uncertainty r = 0.000015, k = 1.598088
         5        35     1        0.109444   310537.557666    ;  uncertainty r = 0.000015, k = 1.598088
         5        36     1        0.109444   310537.557666    ;  uncertainty r = 0.000015, k = 1.598088
         6         7     1        0.135351   495763.447070    ;  uncertainty r = 0.000102, k = 13.751618
         7         8     1        0.135351   495763.447070    ;  uncertainty r = 0.000102, k = 13.751618
         7         9     1        0.136652   318374.973145    ;  uncertainty r = 0.000092, k = 21.200785
         9        10     1        0.146381   223708.423486    ;  uncertainty r = 0.000058, k = 14.342670
         9        16     1        0.146381   223708.423486    ;  uncertainty r = 0.000058, k = 14.342768
        10        11     1        0.153378   218045.467334    ;  uncertainty r = 0.000067, k = 7.088220
        10        37     1        0.109551   306518.450781    ;  uncertainty r = 0.000069, k = 2.534282
        10        38     1        0.109551   306518.450781    ;  uncertainty r = 0.000069, k = 2.534282
        11        12     1        0.153483   216575.449170    ;  uncertainty r = 0.000027, k = 7.578024
        11        15     1        0.154451   200722.496875    ;  uncertainty r = 0.000080, k = 20.796785
        11        39     1        0.109350   305021.261133    ;  uncertainty r = 0.000029, k = 3.829702
        12        13     1        0.147055   239228.525098    ;  uncertainty r = 0.000049, k = 14.387571
        12        40     1        0.109407   307491.797705    ;  uncertainty r = 0.000028, k = 1.193800
        12        41     1        0.109407   307491.797705    ;  uncertainty r = 0.000028, k = 1.193800
        13        14     1        0.147055   239228.550635    ;  uncertainty r = 0.000049, k = 14.387585
        13        17     1        0.135047   325312.869482    ;  uncertainty r = 0.000089, k = 12.901212
        14        15     1        0.153483   216575.449170    ;  uncertainty r = 0.000027, k = 7.577986
        14        42     1        0.109407   307491.772168    ;  uncertainty r = 0.000028, k = 1.193799
        14        43     1        0.109407   307491.772168    ;  uncertainty r = 0.000028, k = 1.193799
        15        16     1        0.153378   218045.441797    ;  uncertainty r = 0.000067, k = 7.088228
        15        44     1        0.109350   305021.261133    ;  uncertainty r = 0.000029, k = 3.829660
        16        45     1        0.109551   306518.450781    ;  uncertainty r = 0.000069, k = 2.534287
        16        46     1        0.109551   306518.450781    ;  uncertainty r = 0.000069, k = 2.534287
        17        18     1        0.123383   668472.347852    ;  uncertainty r = 0.000069, k = 10.814746
        17        19     1        0.151023   235724.527246    ;  uncertainty r = 0.000156, k = 18.669451
        19        20     1        0.133473   433286.908984    ;  uncertainty r = 0.000087, k = 19.990031
        19        24     1        0.139943   312161.079395    ;  uncertainty r = 0.000159, k = 10.940810
        20        21     1        0.133716   384759.046484    ;  uncertainty r = 0.000094, k = 13.177018
        21        22     1        0.139626   372446.559033    ;  uncertainty r = 0.000087, k = 3.035474
        21        47     1        0.109037   337931.189355    ;  uncertainty r = 0.000010, k = 1.812373
        22        23     1        0.138661   385666.405518    ;  uncertainty r = 0.000085, k = 3.444939
        22        48     1        0.108830   337128.558008    ;  uncertainty r = 0.000021, k = 1.502310
        23        24     1        0.139084   345656.267090    ;  uncertainty r = 0.000115, k = 9.764341
        23        49     1        0.108559   331332.655664    ;  uncertainty r = 0.000006, k = 1.521018
        24        25     1        0.140314   320992.807764    ;  uncertainty r = 0.000257, k = 8.981212
        25        26     1        0.134451   228578.426855    ;  uncertainty r = 0.000085, k = 14.588763
        25        29     1        0.134451   228578.426855    ;  uncertainty r = 0.000085, k = 14.588763
        26        27     1        0.132944   463455.224219    ;  uncertainty r = 0.000063, k = 7.681554
        27        28     1        0.141781   249584.001709    ;  uncertainty r = 0.000103, k = 15.332670
        27        50     1        0.108418   339910.136572    ;  uncertainty r = 0.000037, k = 1.124299
        28        29     1        0.132944   463455.224219    ;  uncertainty r = 0.000063, k = 7.681554
        28        51     1        0.108418   339910.136572    ;  uncertainty r = 0.000037, k = 1.124299

[ angles ]
;       ai        aj        ak funct           theta             cth
         1         2         3     1      122.372604      418.636154    ;  uncertainty theta = 0.002202, k = 0.178974
         1         2         8     1      118.694351      504.935496    ;  uncertainty theta = 0.002079, k = 0.183388
         2         1        30     1      108.943436      385.594359    ;  uncertainty theta = 0.001293, k = 0.046207
         2         1        31     1      108.943436      385.594359    ;  uncertainty theta = 0.001293, k = 0.046207
         2         1        32     1      108.943436      385.594359    ;  uncertainty theta = 0.001293, k = 0.046207
         2         3         4     1      116.498520      460.598349    ;  uncertainty theta = 0.005053, k = 0.122034
         2         3        33     1      121.718430      273.369457    ;  uncertainty theta = 0.001159, k = 0.085456
         2         8         7     1      115.347641      408.898855    ;  uncertainty theta = 0.006383, k = 0.283100
         3         2         8     1      120.465759      656.141103    ;  uncertainty theta = 0.004510, k = 0.102828
         3         4         5     1      122.372604      418.636154    ;  uncertainty theta = 0.002202, k = 0.178974
         3         4         6     1      120.465759      656.141103    ;  uncertainty theta = 0.004510, k = 0.102828
         4         3        33     1      121.718430      273.369457    ;  uncertainty theta = 0.001159, k = 0.085456
         4         5        34     1      108.943436      385.594359    ;  uncertainty theta = 0.001293, k = 0.046207
         4         5        35     1      108.943436      385.594359    ;  uncertainty theta = 0.001293, k = 0.046207
         4         5        36     1      108.943436      385.594359    ;  uncertainty theta = 0.001293, k = 0.046207
         4         6         7     1      115.347641      408.898855    ;  uncertainty theta = 0.006383, k = 0.283100
         5         4         6     1      118.694351      504.935496    ;  uncertainty theta = 0.002079, k = 0.183388
         6         7         8     1      129.113480      717.709797    ;  uncertainty theta = 0.004729, k = 0.118642
         6         7         9     1      119.537033      549.082007    ;  uncertainty theta = 0.007399, k = 0.202209
         7         9        10     1      113.699562      433.285581    ;  uncertainty theta = 0.003934, k = 0.215172
         7         9        16     1      113.699562      433.285581    ;  uncertainty theta = 0.003934, k = 0.215172
         8         7         9     1      119.537033      549.082007    ;  uncertainty theta = 0.007399, k = 0.202209
         9        10        11     1      105.543358      834.662672    ;  uncertainty theta = 0.001817, k = 0.093259
         9        10        37     1      108.562340      456.415882    ;  uncertainty theta = 0.001202, k = 0.062362
         9        10        38     1      108.562340      456.415882    ;  uncertainty theta = 0.001202, k = 0.062362
         9        16        15     1      105.543358      834.662672    ;  uncertainty theta = 0.001817, k = 0.093260
         9        16        45     1      108.562340      456.415882    ;  uncertainty theta = 0.001202, k = 0.062362
         9        16        46     1      108.562340      456.415882    ;  uncertainty theta = 0.001202, k = 0.062362
        10         9        16     1      112.639450      489.228386    ;  uncertainty theta = 0.009972, k = 0.334405
        10        11        12     1      112.949661      497.404762    ;  uncertainty theta = 0.002421, k = 0.264888
        10        11        15     1      106.407143      696.228300    ;  uncertainty theta = 0.000820, k = 0.121960
        10        11        39     1      108.909218      387.529593    ;  uncertainty theta = 0.002428, k = 0.196423
        11        10        37     1      109.942749      401.681046    ;  uncertainty theta = 0.001744, k = 0.042629
        11        10        38     1      109.942749      401.681046    ;  uncertainty theta = 0.001744, k = 0.042629
        11        12        13     1      106.058067      795.674592    ;  uncertainty theta = 0.003237, k = 0.196804
        11        12        40     1      109.865158      397.575509    ;  uncertainty theta = 0.001989, k = 0.094014
        11        12        41     1      109.865158      397.575509    ;  uncertainty theta = 0.001989, k = 0.094014
        11        15        14     1      106.556213      683.335380    ;  uncertainty theta = 0.002370, k = 0.112698
        11        15        16     1      106.407143      696.228492    ;  uncertainty theta = 0.000820, k = 0.121960
        11        15        44     1      109.787766      408.249925    ;  uncertainty theta = 0.001833, k = 0.098421
        12        11        15     1      106.556213      683.335380    ;  uncertainty theta = 0.002370, k = 0.112698
        12        11        39     1      108.932266      380.845861    ;  uncertainty theta = 0.002642, k = 0.151569
        12        13        14     1      114.538513      531.637512    ;  uncertainty theta = 0.002583, k = 0.157167
        12        13        17     1      117.683365      362.310612    ;  uncertainty theta = 0.004049, k = 0.132657
        13        12        40     1      109.185745      457.390410    ;  uncertainty theta = 0.001621, k = 0.091421
        13        12        41     1      109.185745      457.390410    ;  uncertainty theta = 0.001621, k = 0.091421
        13        14        15     1      106.058067      795.674464    ;  uncertainty theta = 0.003237, k = 0.196804
        13        14        42     1      109.185745      457.390378    ;  uncertainty theta = 0.001621, k = 0.091421
        13        14        43     1      109.185745      457.390378    ;  uncertainty theta = 0.001621, k = 0.091421
        13        17        18     1      125.193222      741.105045    ;  uncertainty theta = 0.003382, k = 0.149783
        13        17        19     1      111.256180      384.598124    ;  uncertainty theta = 0.006028, k = 0.150805
        14        13        17     1      117.683365      362.310612    ;  uncertainty theta = 0.004049, k = 0.132658
        14        15        16     1      112.949661      497.404762    ;  uncertainty theta = 0.002421, k = 0.264887
        14        15        44     1      108.932266      380.845829    ;  uncertainty theta = 0.002642, k = 0.151569
        15        11        39     1      109.787766      408.249925    ;  uncertainty theta = 0.001833, k = 0.098421
        15        14        42     1      109.865158      397.575509    ;  uncertainty theta = 0.001989, k = 0.094014
        15        14        43     1      109.865158      397.575509    ;  uncertainty theta = 0.001989, k = 0.094014
        15        16        45     1      109.942749      401.681014    ;  uncertainty theta = 0.001744, k = 0.042629
        15        16        46     1      109.942749      401.681014    ;  uncertainty theta = 0.001744, k = 0.042629
        16        15        44     1      108.909218      387.529561    ;  uncertainty theta = 0.002428, k = 0.196423
        17        19        20     1      117.175095      443.766521    ;  uncertainty theta = 0.005336, k = 0.241164
        17        19        24     1      120.822853      369.721417    ;  uncertainty theta = 0.006936, k = 0.322731
        18        17        19     1      121.787743      440.211149    ;  uncertainty theta = 0.005332, k = 0.095850
        19        20        21     1      118.894333      404.988581    ;  uncertainty theta = 0.004154, k = 0.233655
        19        24        23     1      124.055809      354.816269    ;  uncertainty theta = 0.007321, k = 0.309196
        19        24        25     1      117.935196      416.690737    ;  uncertainty theta = 0.004947, k = 0.384794
        20        19        24     1      125.148117      621.053370    ;  uncertainty theta = 0.006134, k = 0.237071
        20        21        22     1      122.682663      669.955658    ;  uncertainty theta = 0.002310, k = 0.088069
        20        21        47     1      116.610367      332.366915    ;  uncertainty theta = 0.003312, k = 0.143889
        21        22        23     1      116.015274      477.872768    ;  uncertainty theta = 0.002882, k = 0.223924
        21        22        48     1      121.825943      285.566683    ;  uncertainty theta = 0.001465, k = 0.048148
        22        21        47     1      121.111618      280.052518    ;  uncertainty theta = 0.002186, k = 0.056833
        22        23        24     1      118.317223      525.719447    ;  uncertainty theta = 0.002160, k = 0.141854
        22        23        49     1      122.131187      286.465685    ;  uncertainty theta = 0.002312, k = 0.118936
        23        22        48     1      121.337563      279.799797    ;  uncertainty theta = 0.001850, k = 0.052287
        23        24        25     1      118.916039      459.235721    ;  uncertainty theta = 0.003277, k = 0.177061
        24        23        49     1      118.210449      264.140633    ;  uncertainty theta = 0.006379, k = 0.157430
        24        25        26     1      115.957886      432.481162    ;  uncertainty theta = 0.008269, k = 0.078430
        24        25        29     1      115.957886      432.481162    ;  uncertainty theta = 0.008269, k = 0.078430
        25        26        27     1      105.286926      919.025917    ;  uncertainty theta = 0.004317, k = 0.158405
        25        29        28     1      105.286926      919.025917    ;  uncertainty theta = 0.004317, k = 0.158405
        26        25        29     1      113.981934     1155.532237    ;  uncertainty theta = 0.003970, k = 0.220442
        26        27        28     1      108.888649      887.374011    ;  uncertainty theta = 0.003901, k = 0.098446
        26        27        50     1      119.788475      274.010949    ;  uncertainty theta = 0.003762, k = 0.111795
        27        28        29     1      108.888649      887.374011    ;  uncertainty theta = 0.003901, k = 0.098446
        27        28        51     1      127.065453      242.460680    ;  uncertainty theta = 0.004115, k = 0.077998
        28        27        50     1      127.065453      242.460680    ;  uncertainty theta = 0.004115, k = 0.077998
        29        28        51     1      119.788475      274.010949    ;  uncertainty theta = 0.003762, k = 0.111795
        30         1        31     1      107.153793      312.530167    ;  uncertainty theta = 0.001242, k = 0.032267
        30         1        32     1      107.153793      312.530167    ;  uncertainty theta = 0.001242, k = 0.032267
        31         1        32     1      107.153793      312.530167    ;  uncertainty theta = 0.001242, k = 0.032267
        34         5        35     1      107.153793      312.530167    ;  uncertainty theta = 0.001242, k = 0.032267
        34         5        36     1      107.153793      312.530167    ;  uncertainty theta = 0.001242, k = 0.032267
        35         5        36     1      107.153793      312.530167    ;  uncertainty theta = 0.001242, k = 0.032267
        37        10        38     1      105.122986      312.324913    ;  uncertainty theta = 0.002382, k = 0.114503
        40        12        41     1      105.398071      309.077582    ;  uncertainty theta = 0.003779, k = 0.079218
        42        14        43     1      105.398071      309.077550    ;  uncertainty theta = 0.003779, k = 0.079218
        45        16        46     1      105.123001      312.324913    ;  uncertainty theta = 0.002382, k = 0.114504

[ dihedrals ] ; propers for gromacs 4.5 or higher, use funct 9
;       ai        aj        ak        al funct           phase               k        pn
         1         2         3         4     9        0.000000       -0.007202         1    ;  uncertainty k = 0.501717
         1         2         3         4     9      180.000000        7.613770         2    ;  uncertainty k = 0.266340
         1         2         3         4     9        0.000000        0.944105         3    ;  uncertainty k = 0.227996
         1         2         3         4     9      180.000000        1.305657         4    ;  uncertainty k = 0.239337
         1         2         3        33     9        0.000000       -0.261675         1    ;  uncertainty k = 0.315637
         1         2         3        33     9      180.000000        6.874962         2    ;  uncertainty k = 0.342650
         1         2         3        33     9        0.000000        0.656535         3    ;  uncertainty k = 0.284603
         1         2         3        33     9      180.000000        0.765991         4    ;  uncertainty k = 0.276599
         1         2         8         7     9        0.000000        0.048315         1    ;  uncertainty k = 0.979765
         1         2         8         7     9      180.000000       15.003732         2    ;  uncertainty k = 0.544478
         1         2         8         7     9        0.000000        2.381190         3    ;  uncertainty k = 0.363196
         1         2         8         7     9      180.000000        1.660639         4    ;  uncertainty k = 0.462769
         2         3         4         5     9        0.000000       -0.007202         1    ;  uncertainty k = 0.501717
         2         3         4         5     9      180.000000        7.613770         2    ;  uncertainty k = 0.266340
         2         3         4         5     9        0.000000        0.944105         3    ;  uncertainty k = 0.227996
         2         3         4         5     9      180.000000        1.305657         4    ;  uncertainty k = 0.239337
         2         3         4         6     9        0.000000       -0.216009         1    ;  uncertainty k = 0.356936
         2         3         4         6     9      180.000000       11.910555         2    ;  uncertainty k = 0.424709
         2         3         4         6     9        0.000000       -1.407438         3    ;  uncertainty k = 0.758939
         2         3         4         6     9      180.000000        0.980955         4    ;  uncertainty k = 0.077687
         2         8         7         6     9        0.000000       -0.609060         1    ;  uncertainty k = 0.758199
         2         8         7         6     9      180.000000        8.692615         2    ;  uncertainty k = 0.791818
         2         8         7         6     9        0.000000        0.670286         3    ;  uncertainty k = 0.621159
         2         8         7         6     9      180.000000        0.786580         4    ;  uncertainty k = 0.112571
         2         8         7         9     9        0.000000        0.521917         1    ;  uncertainty k = 0.979110
         2         8         7         9     9      180.000000       10.533274         2    ;  uncertainty k = 0.414227
         2         8         7         9     9        0.000000        1.726081         3    ;  uncertainty k = 0.365721
         2         8         7         9     9      180.000000        0.994637         4    ;  uncertainty k = 0.141068
         3         2         1        30     9        0.000000       -0.250297         1    ;  uncertainty k = 0.274873
         3         2         1        30     9      180.000000        2.290444         2    ;  uncertainty k = 0.171777
         3         2         1        30     9        0.000000        0.278065         3    ;  uncertainty k = 0.038017
         3         2         1        30     9      180.000000        0.146673         4    ;  uncertainty k = 0.025666
         3         2         1        31     9        0.000000       -0.250297         1    ;  uncertainty k = 0.274873
         3         2         1        31     9      180.000000        2.290444         2    ;  uncertainty k = 0.171777
         3         2         1        31     9        0.000000        0.278065         3    ;  uncertainty k = 0.038017
         3         2         1        31     9      180.000000        0.146673         4    ;  uncertainty k = 0.025666
         3         2         1        32     9        0.000000       -0.250297         1    ;  uncertainty k = 0.274873
         3         2         1        32     9      180.000000        2.290444         2    ;  uncertainty k = 0.171777
         3         2         1        32     9        0.000000        0.278065         3    ;  uncertainty k = 0.038017
         3         2         1        32     9      180.000000        0.146673         4    ;  uncertainty k = 0.025666
         3         2         8         7     9        0.000000       -0.347754         1    ;  uncertainty k = 0.474198
         3         2         8         7     9      180.000000       15.075407         2    ;  uncertainty k = 0.177114
         3         2         8         7     9        0.000000        0.171723         3    ;  uncertainty k = 0.438996
         3         2         8         7     9      180.000000        1.128465         4    ;  uncertainty k = 0.364424
         3         4         5        34     9        0.000000       -0.250297         1    ;  uncertainty k = 0.274873
         3         4         5        34     9      180.000000        2.290444         2    ;  uncertainty k = 0.171777
         3         4         5        34     9        0.000000        0.278065         3    ;  uncertainty k = 0.038017
         3         4         5        34     9      180.000000        0.146673         4    ;  uncertainty k = 0.025666
         3         4         5        35     9        0.000000       -0.250297         1    ;  uncertainty k = 0.274873
         3         4         5        35     9      180.000000        2.290444         2    ;  uncertainty k = 0.171777
         3         4         5        35     9        0.000000        0.278065         3    ;  uncertainty k = 0.038017
         3         4         5        35     9      180.000000        0.146673         4    ;  uncertainty k = 0.025666
         3         4         5        36     9        0.000000       -0.250297         1    ;  uncertainty k = 0.274873
         3         4         5        36     9      180.000000        2.290444         2    ;  uncertainty k = 0.171777
         3         4         5        36     9        0.000000        0.278065         3    ;  uncertainty k = 0.038017
         3         4         5        36     9      180.000000        0.146673         4    ;  uncertainty k = 0.025666
         3         4         6         7     9        0.000000       -0.347754         1    ;  uncertainty k = 0.474198
         3         4         6         7     9      180.000000       15.075407         2    ;  uncertainty k = 0.177114
         3         4         6         7     9        0.000000        0.171723         3    ;  uncertainty k = 0.438996
         3         4         6         7     9      180.000000        1.128465         4    ;  uncertainty k = 0.364424
         4         3         2         8     9        0.000000       -0.216009         1    ;  uncertainty k = 0.356936
         4         3         2         8     9      180.000000       11.910555         2    ;  uncertainty k = 0.424709
         4         3         2         8     9        0.000000       -1.407438         3    ;  uncertainty k = 0.758939
         4         3         2         8     9      180.000000        0.980955         4    ;  uncertainty k = 0.077687
         4         6         7         8     9        0.000000       -0.609060         1    ;  uncertainty k = 0.758199
         4         6         7         8     9      180.000000        8.692615         2    ;  uncertainty k = 0.791818
         4         6         7         8     9        0.000000        0.670286         3    ;  uncertainty k = 0.621159
         4         6         7         8     9      180.000000        0.786580         4    ;  uncertainty k = 0.112571
         4         6         7         9     9        0.000000        0.521917         1    ;  uncertainty k = 0.979110
         4         6         7         9     9      180.000000       10.533274         2    ;  uncertainty k = 0.414227
         4         6         7         9     9        0.000000        1.726081         3    ;  uncertainty k = 0.365721
         4         6         7         9     9      180.000000        0.994637         4    ;  uncertainty k = 0.141068
         5         4         3        33     9        0.000000       -0.261675         1    ;  uncertainty k = 0.315637
         5         4         3        33     9      180.000000        6.874962         2    ;  uncertainty k = 0.342650
         5         4         3        33     9        0.000000        0.656535         3    ;  uncertainty k = 0.284603
         5         4         3        33     9      180.000000        0.765991         4    ;  uncertainty k = 0.276599
         5         4         6         7     9        0.000000        0.048315         1    ;  uncertainty k = 0.979765
         5         4         6         7     9      180.000000       15.003732         2    ;  uncertainty k = 0.544478
         5         4         6         7     9        0.000000        2.381190         3    ;  uncertainty k = 0.363196
         5         4         6         7     9      180.000000        1.660639         4    ;  uncertainty k = 0.462769
         6         4         3        33     9        0.000000        0.224609         1    ;  uncertainty k = 0.474805
         6         4         3        33     9      180.000000        8.441723         2    ;  uncertainty k = 0.328864
         6         4         3        33     9        0.000000        1.108367         3    ;  uncertainty k = 0.321336
         6         4         3        33     9      180.000000        1.600213         4    ;  uncertainty k = 0.093449
         6         4         5        34     9        0.000000        0.603364         1    ;  uncertainty k = 0.264623
         6         4         5        34     9      180.000000        3.634560         2    ;  uncertainty k = 0.065840
         6         4         5        34     9        0.000000        0.492173         3    ;  uncertainty k = 0.029988
         6         4         5        34     9      180.000000        0.275109         4    ;  uncertainty k = 0.045162
         6         4         5        35     9        0.000000        0.603364         1    ;  uncertainty k = 0.264623
         6         4         5        35     9      180.000000        3.634560         2    ;  uncertainty k = 0.065840
         6         4         5        35     9        0.000000        0.492173         3    ;  uncertainty k = 0.029988
         6         4         5        35     9      180.000000        0.275109         4    ;  uncertainty k = 0.045162
         6         4         5        36     9        0.000000        0.603364         1    ;  uncertainty k = 0.264623
         6         4         5        36     9      180.000000        3.634560         2    ;  uncertainty k = 0.065840
         6         4         5        36     9        0.000000        0.492173         3    ;  uncertainty k = 0.029988
         6         4         5        36     9      180.000000        0.275109         4    ;  uncertainty k = 0.045162
         6         7         9        10     9        0.000000        5.106263         1    ;  uncertainty k = 0.513053
         6         7         9        10     9      180.000000       11.756744         2    ;  uncertainty k = 0.134928
         6         7         9        10     9        0.000000        0.174633         3    ;  uncertainty k = 0.195421
         6         7         9        10     9      180.000000       -0.347384         4    ;  uncertainty k = 0.051935
         6         7         9        16     9        0.000000        5.106262         1    ;  uncertainty k = 0.513053
         6         7         9        16     9      180.000000       11.756744         2    ;  uncertainty k = 0.134928
         6         7         9        16     9        0.000000        0.174633         3    ;  uncertainty k = 0.195420
         6         7         9        16     9      180.000000       -0.347384         4    ;  uncertainty k = 0.051934
         7         9        10        11     9        0.000000       -5.472950         1    ;  uncertainty k = 1.903105
         7         9        10        11     9      180.000000        0.716175         2    ;  uncertainty k = 0.687896
         7         9        10        11     9        0.000000        0.811633         3    ;  uncertainty k = 0.285403
         7         9        10        11     9      180.000000        0.315930         4    ;  uncertainty k = 0.127584
         7         9        10        37     9        0.000000       -0.203572         1    ;  uncertainty k = 0.772783
         7         9        10        37     9      180.000000        1.020940         2    ;  uncertainty k = 0.423811
         7         9        10        37     9        0.000000        0.580937         3    ;  uncertainty k = 0.130796
         7         9        10        37     9      180.000000        0.377931         4    ;  uncertainty k = 0.101923
         7         9        10        38     9        0.000000       -0.203572         1    ;  uncertainty k = 0.772783
         7         9        10        38     9      180.000000        1.020940         2    ;  uncertainty k = 0.423811
         7         9        10        38     9        0.000000        0.580937         3    ;  uncertainty k = 0.130796
         7         9        10        38     9      180.000000        0.377931         4    ;  uncertainty k = 0.101923
         7         9        16        15     9        0.000000       -5.472951         1    ;  uncertainty k = 1.903105
         7         9        16        15     9      180.000000        0.716175         2    ;  uncertainty k = 0.687896
         7         9        16        15     9        0.000000        0.811634         3    ;  uncertainty k = 0.285402
         7         9        16        15     9      180.000000        0.315929         4    ;  uncertainty k = 0.127584
         7         9        16        45     9        0.000000       -0.203573         1    ;  uncertainty k = 0.772782
         7         9        16        45     9      180.000000        1.020940         2    ;  uncertainty k = 0.423811
         7         9        16        45     9        0.000000        0.580937         3    ;  uncertainty k = 0.130796
         7         9        16        45     9      180.000000        0.377930         4    ;  uncertainty k = 0.101923
         7         9        16        46     9        0.000000       -0.203573         1    ;  uncertainty k = 0.772782
         7         9        16        46     9      180.000000        1.020940         2    ;  uncertainty k = 0.423811
         7         9        16        46     9        0.000000        0.580937         3    ;  uncertainty k = 0.130796
         7         9        16        46     9      180.000000        0.377930         4    ;  uncertainty k = 0.101923
         8         2         1        30     9        0.000000        0.603364         1    ;  uncertainty k = 0.264623
         8         2         1        30     9      180.000000        3.634560         2    ;  uncertainty k = 0.065840
         8         2         1        30     9        0.000000        0.492173         3    ;  uncertainty k = 0.029988
         8         2         1        30     9      180.000000        0.275109         4    ;  uncertainty k = 0.045162
         8         2         1        31     9        0.000000        0.603364         1    ;  uncertainty k = 0.264623
         8         2         1        31     9      180.000000        3.634560         2    ;  uncertainty k = 0.065840
         8         2         1        31     9        0.000000        0.492173         3    ;  uncertainty k = 0.029988
         8         2         1        31     9      180.000000        0.275109         4    ;  uncertainty k = 0.045162
         8         2         1        32     9        0.000000        0.603364         1    ;  uncertainty k = 0.264623
         8         2         1        32     9      180.000000        3.634560         2    ;  uncertainty k = 0.065840
         8         2         1        32     9        0.000000        0.492173         3    ;  uncertainty k = 0.029988
         8         2         1        32     9      180.000000        0.275109         4    ;  uncertainty k = 0.045162
         8         2         3        33     9        0.000000        0.224609         1    ;  uncertainty k = 0.474805
         8         2         3        33     9      180.000000        8.441723         2    ;  uncertainty k = 0.328864
         8         2         3        33     9        0.000000        1.108367         3    ;  uncertainty k = 0.321336
         8         2         3        33     9      180.000000        1.600213         4    ;  uncertainty k = 0.093449
         8         7         9        10     9        0.000000        5.106263         1    ;  uncertainty k = 0.513053
         8         7         9        10     9      180.000000       11.756744         2    ;  uncertainty k = 0.134928
         8         7         9        10     9        0.000000        0.174633         3    ;  uncertainty k = 0.195421
         8         7         9        10     9      180.000000       -0.347384         4    ;  uncertainty k = 0.051935
         8         7         9        16     9        0.000000        5.106262         1    ;  uncertainty k = 0.513053
         8         7         9        16     9      180.000000       11.756744         2    ;  uncertainty k = 0.134928
         8         7         9        16     9        0.000000        0.174633         3    ;  uncertainty k = 0.195420
         8         7         9        16     9      180.000000       -0.347384         4    ;  uncertainty k = 0.051934
         9        10        11        12     9        0.000000       -1.910128         1    ;  uncertainty k = 1.241860
         9        10        11        12     9      180.000000        1.001650         2    ;  uncertainty k = 0.853963
         9        10        11        12     9        0.000000        1.656293         3    ;  uncertainty k = 0.381212
         9        10        11        12     9      180.000000       -0.171903         4    ;  uncertainty k = 0.234611
         9        10        11        15     9        0.000000       -0.248944         1    ;  uncertainty k = 1.669287
         9        10        11        15     9      180.000000        6.161827         2    ;  uncertainty k = 1.110762
         9        10        11        15     9        0.000000        0.670927         3    ;  uncertainty k = 0.347090
         9        10        11        15     9      180.000000       -1.488831         4    ;  uncertainty k = 0.506459
         9        10        11        39     9        0.000000        0.565924         1    ;  uncertainty k = 0.856652
         9        10        11        39     9      180.000000        1.324273         2    ;  uncertainty k = 0.513614
         9        10        11        39     9        0.000000        1.171168         3    ;  uncertainty k = 0.217599
         9        10        11        39     9      180.000000       -0.072433         4    ;  uncertainty k = 0.184790
         9        16        15        11     9        0.000000       -0.248943         1    ;  uncertainty k = 1.669287
         9        16        15        11     9      180.000000        6.161829         2    ;  uncertainty k = 1.110761
         9        16        15        11     9        0.000000        0.670927         3    ;  uncertainty k = 0.347090
         9        16        15        11     9      180.000000       -1.488831         4    ;  uncertainty k = 0.506459
         9        16        15        14     9        0.000000       -1.910129         1    ;  uncertainty k = 1.241858
         9        16        15        14     9      180.000000        1.001651         2    ;  uncertainty k = 0.853963
         9        16        15        14     9        0.000000        1.656293         3    ;  uncertainty k = 0.381212
         9        16        15        14     9      180.000000       -0.171904         4    ;  uncertainty k = 0.234611
         9        16        15        44     9        0.000000        0.565926         1    ;  uncertainty k = 0.856651
         9        16        15        44     9      180.000000        1.324272         2    ;  uncertainty k = 0.513614
         9        16        15        44     9        0.000000        1.171168         3    ;  uncertainty k = 0.217601
         9        16        15        44     9      180.000000       -0.072433         4    ;  uncertainty k = 0.184790
        10         9        16        15     9        0.000000        0.409930         1    ;  uncertainty k = 1.033845
        10         9        16        15     9      180.000000        1.423325         2    ;  uncertainty k = 1.181231
        10         9        16        15     9        0.000000        0.860226         3    ;  uncertainty k = 0.332034
        10         9        16        15     9      180.000000        0.010765         4    ;  uncertainty k = 0.168707
        10         9        16        45     9        0.000000       -2.106813         1    ;  uncertainty k = 0.722683
        10         9        16        45     9      180.000000        1.271153         2    ;  uncertainty k = 0.391419
        10         9        16        45     9        0.000000        1.144989         3    ;  uncertainty k = 0.081016
        10         9        16        45     9      180.000000        0.249969         4    ;  uncertainty k = 0.124009
        10         9        16        46     9        0.000000       -2.106813         1    ;  uncertainty k = 0.722683
        10         9        16        46     9      180.000000        1.271153         2    ;  uncertainty k = 0.391419
        10         9        16        46     9        0.000000        1.144989         3    ;  uncertainty k = 0.081016
        10         9        16        46     9      180.000000        0.249969         4    ;  uncertainty k = 0.124009
        10        11        12        13     9        0.000000       -2.784726         1    ;  uncertainty k = 1.073004
        10        11        12        13     9      180.000000        0.032544         2    ;  uncertainty k = 0.708329
        10        11        12        13     9        0.000000        1.618446         3    ;  uncertainty k = 0.213023
        10        11        12        13     9      180.000000       -0.200444         4    ;  uncertainty k = 0.095435
        10        11        12        40     9        0.000000       -0.501445         1    ;  uncertainty k = 0.128631
        10        11        12        40     9      180.000000       -0.403017         2    ;  uncertainty k = 0.190920
        10        11        12        40     9        0.000000        0.569586         3    ;  uncertainty k = 0.186918
        10        11        12        40     9      180.000000       -0.073502         4    ;  uncertainty k = 0.061663
        10        11        12        41     9        0.000000       -0.501445         1    ;  uncertainty k = 0.128631
        10        11        12        41     9      180.000000       -0.403017         2    ;  uncertainty k = 0.190920
        10        11        12        41     9        0.000000        0.569586         3    ;  uncertainty k = 0.186918
        10        11        12        41     9      180.000000       -0.073502         4    ;  uncertainty k = 0.061663
        10        11        15        14     9        0.000000       -3.903984         1    ;  uncertainty k = 0.857354
        10        11        15        14     9      180.000000        0.983349         2    ;  uncertainty k = 1.000553
        10        11        15        14     9        0.000000        1.196959         3    ;  uncertainty k = 0.571496
        10        11        15        14     9      180.000000       -0.414130         4    ;  uncertainty k = 0.332479
        10        11        15        16     9        0.000000       -3.896618         1    ;  uncertainty k = 1.087275
        10        11        15        16     9      180.000000        1.035025         2    ;  uncertainty k = 1.026286
        10        11        15        16     9        0.000000        1.207838         3    ;  uncertainty k = 0.671623
        10        11        15        16     9      180.000000       -0.436931         4    ;  uncertainty k = 0.343366
        10        11        15        44     9        0.000000       -1.223112         1    ;  uncertainty k = 0.611377
        10        11        15        44     9      180.000000        0.489634         2    ;  uncertainty k = 0.414978
        10        11        15        44     9        0.000000        0.997353         3    ;  uncertainty k = 0.241670
        10        11        15        44     9      180.000000        0.066778         4    ;  uncertainty k = 0.087125
        11        10         9        16     9        0.000000        0.409931         1    ;  uncertainty k = 1.033845
        11        10         9        16     9      180.000000        1.423324         2    ;  uncertainty k = 1.181232
        11        10         9        16     9        0.000000        0.860226         3    ;  uncertainty k = 0.332034
        11        10         9        16     9      180.000000        0.010765         4    ;  uncertainty k = 0.168708
        11        12        13        14     9        0.000000       -0.534053         1    ;  uncertainty k = 0.966631
        11        12        13        14     9      180.000000        0.253072         2    ;  uncertainty k = 0.697421
        11        12        13        14     9        0.000000        0.818182         3    ;  uncertainty k = 0.177554
        11        12        13        14     9      180.000000        0.150911         4    ;  uncertainty k = 0.243821
        11        12        13        17     9        0.000000       -0.189484         1    ;  uncertainty k = 0.687588
        11        12        13        17     9      180.000000       -0.552353         2    ;  uncertainty k = 0.324263
        11        12        13        17     9        0.000000        0.126431         3    ;  uncertainty k = 0.337049
        11        12        13        17     9      180.000000        0.812611         4    ;  uncertainty k = 0.137240
        11        15        14        13     9        0.000000       -0.649079         1    ;  uncertainty k = 0.767823
        11        15        14        13     9      180.000000        6.057222         2    ;  uncertainty k = 1.008607
        11        15        14        13     9        0.000000        0.393251         3    ;  uncertainty k = 0.309544
        11        15        14        13     9      180.000000       -1.124878         4    ;  uncertainty k = 0.148352
        11        15        14        42     9        0.000000        0.466428         1    ;  uncertainty k = 0.514719
        11        15        14        42     9      180.000000       -1.085924         2    ;  uncertainty k = 0.663113
        11        15        14        42     9        0.000000       -0.256974         3    ;  uncertainty k = 0.175595
        11        15        14        42     9      180.000000       -0.013323         4    ;  uncertainty k = 0.178264
        11        15        14        43     9        0.000000        0.466428         1    ;  uncertainty k = 0.514719
        11        15        14        43     9      180.000000       -1.085924         2    ;  uncertainty k = 0.663113
        11        15        14        43     9        0.000000       -0.256974         3    ;  uncertainty k = 0.175595
        11        15        14        43     9      180.000000       -0.013323         4    ;  uncertainty k = 0.178264
        11        15        16        45     9        0.000000        0.646621         1    ;  uncertainty k = 0.517783
        11        15        16        45     9      180.000000       -1.099688         2    ;  uncertainty k = 0.743824
        11        15        16        45     9        0.000000       -0.334779         3    ;  uncertainty k = 0.213643
        11        15        16        45     9      180.000000       -0.018734         4    ;  uncertainty k = 0.206092
        11        15        16        46     9        0.000000        0.646621         1    ;  uncertainty k = 0.517783
        11        15        16        46     9      180.000000       -1.099688         2    ;  uncertainty k = 0.743824
        11        15        16        46     9        0.000000       -0.334779         3    ;  uncertainty k = 0.213643
        11        15        16        46     9      180.000000       -0.018734         4    ;  uncertainty k = 0.206092
        12        11        10        37     9        0.000000       -0.690368         1    ;  uncertainty k = 0.230727
        12        11        10        37     9      180.000000       -0.385890         2    ;  uncertainty k = 0.260443
        12        11        10        37     9        0.000000        0.564060         3    ;  uncertainty k = 0.183828
        12        11        10        37     9      180.000000       -0.078902         4    ;  uncertainty k = 0.096166
        12        11        10        38     9        0.000000       -0.690368         1    ;  uncertainty k = 0.230727
        12        11        10        38     9      180.000000       -0.385890         2    ;  uncertainty k = 0.260443
        12        11        10        38     9        0.000000        0.564060         3    ;  uncertainty k = 0.183828
        12        11        10        38     9      180.000000       -0.078902         4    ;  uncertainty k = 0.096166
        12        11        15        14     9        0.000000       -3.811860         1    ;  uncertainty k = 0.675790
        12        11        15        14     9      180.000000        0.929176         2    ;  uncertainty k = 0.941967
        12        11        15        14     9        0.000000        1.194017         3    ;  uncertainty k = 0.480480
        12        11        15        14     9      180.000000       -0.407459         4    ;  uncertainty k = 0.338642
        12        11        15        16     9        0.000000       -3.903983         1    ;  uncertainty k = 0.857354
        12        11        15        16     9      180.000000        0.983349         2    ;  uncertainty k = 1.000554
        12        11        15        16     9        0.000000        1.196959         3    ;  uncertainty k = 0.571496
        12        11        15        16     9      180.000000       -0.414130         4    ;  uncertainty k = 0.332478
        12        11        15        44     9        0.000000       -1.316017         1    ;  uncertainty k = 0.563252
        12        11        15        44     9      180.000000        0.589824         2    ;  uncertainty k = 0.361594
        12        11        15        44     9        0.000000        1.032739         3    ;  uncertainty k = 0.238984
        12        11        15        44     9      180.000000        0.080667         4    ;  uncertainty k = 0.058160
        12        13        14        15     9        0.000000       -0.534053         1    ;  uncertainty k = 0.966634
        12        13        14        15     9      180.000000        0.253073         2    ;  uncertainty k = 0.697423
        12        13        14        15     9        0.000000        0.818183         3    ;  uncertainty k = 0.177554
        12        13        14        15     9      180.000000        0.150911         4    ;  uncertainty k = 0.243821
        12        13        14        42     9        0.000000       -1.977152         1    ;  uncertainty k = 0.584090
        12        13        14        42     9      180.000000        1.226588         2    ;  uncertainty k = 0.468506
        12        13        14        42     9        0.000000        1.303704         3    ;  uncertainty k = 0.156629
        12        13        14        42     9      180.000000        0.305933         4    ;  uncertainty k = 0.122413
        12        13        14        43     9        0.000000       -1.977152         1    ;  uncertainty k = 0.584090
        12        13        14        43     9      180.000000        1.226588         2    ;  uncertainty k = 0.468506
        12        13        14        43     9        0.000000        1.303704         3    ;  uncertainty k = 0.156629
        12        13        14        43     9      180.000000        0.305933         4    ;  uncertainty k = 0.122413
        12        13        17        18     9        0.000000        5.755090         1    ;  uncertainty k = 0.677526
        12        13        17        18     9      180.000000       16.915067         2    ;  uncertainty k = 0.198733
        12        13        17        18     9        0.000000        0.133795         3    ;  uncertainty k = 0.203282
        12        13        17        18     9      180.000000       -1.061625         4    ;  uncertainty k = 0.147292
        12        13        17        19     9        0.000000        2.691466         1    ;  uncertainty k = 0.453865
        12        13        17        19     9      180.000000        8.798207         2    ;  uncertainty k = 0.380394
        12        13        17        19     9        0.000000        1.598047         3    ;  uncertainty k = 0.223978
        12        13        17        19     9      180.000000       -0.179595         4    ;  uncertainty k = 0.163636
        13        12        11        15     9        0.000000       -0.649077         1    ;  uncertainty k = 0.767823
        13        12        11        15     9      180.000000        6.057221         2    ;  uncertainty k = 1.008608
        13        12        11        15     9        0.000000        0.393252         3    ;  uncertainty k = 0.309543
        13        12        11        15     9      180.000000       -1.124878         4    ;  uncertainty k = 0.148352
        13        12        11        39     9        0.000000        0.155293         1    ;  uncertainty k = 0.670576
        13        12        11        39     9      180.000000        0.822403         2    ;  uncertainty k = 0.397432
        13        12        11        39     9        0.000000        1.059757         3    ;  uncertainty k = 0.186850
        13        12        11        39     9      180.000000       -0.061286         4    ;  uncertainty k = 0.099806
        13        14        15        16     9        0.000000       -2.784723         1    ;  uncertainty k = 1.073003
        13        14        15        16     9      180.000000        0.032543         2    ;  uncertainty k = 0.708329
        13        14        15        16     9        0.000000        1.618446         3    ;  uncertainty k = 0.213023
        13        14        15        16     9      180.000000       -0.200444         4    ;  uncertainty k = 0.095435
        13        14        15        44     9        0.000000        0.155293         1    ;  uncertainty k = 0.670576
        13        14        15        44     9      180.000000        0.822403         2    ;  uncertainty k = 0.397432
        13        14        15        44     9        0.000000        1.059756         3    ;  uncertainty k = 0.186849
        13        14        15        44     9      180.000000       -0.061286         4    ;  uncertainty k = 0.099806
        13        17        19        20     9        0.000000        3.345681         1    ;  uncertainty k = 1.173915
        13        17        19        20     9      180.000000        4.602524         2    ;  uncertainty k = 0.496006
        13        17        19        20     9        0.000000        0.688827         3    ;  uncertainty k = 0.499914
        13        17        19        20     9      180.000000        0.203127         4    ;  uncertainty k = 0.099583
        13        17        19        24     9        0.000000        4.286693         1    ;  uncertainty k = 0.380988
        13        17        19        24     9      180.000000        4.443291         2    ;  uncertainty k = 0.577820
        13        17        19        24     9        0.000000        0.191912         3    ;  uncertainty k = 0.400981
        13        17        19        24     9      180.000000        0.319152         4    ;  uncertainty k = 0.213636
        14        13        12        40     9        0.000000       -1.977151         1    ;  uncertainty k = 0.584091
        14        13        12        40     9      180.000000        1.226588         2    ;  uncertainty k = 0.468506
        14        13        12        40     9        0.000000        1.303705         3    ;  uncertainty k = 0.156629
        14        13        12        40     9      180.000000        0.305932         4    ;  uncertainty k = 0.122413
        14        13        12        41     9        0.000000       -1.977151         1    ;  uncertainty k = 0.584091
        14        13        12        41     9      180.000000        1.226588         2    ;  uncertainty k = 0.468506
        14        13        12        41     9        0.000000        1.303705         3    ;  uncertainty k = 0.156629
        14        13        12        41     9      180.000000        0.305932         4    ;  uncertainty k = 0.122413
        14        13        17        18     9        0.000000        5.755090         1    ;  uncertainty k = 0.677525
        14        13        17        18     9      180.000000       16.915067         2    ;  uncertainty k = 0.198733
        14        13        17        18     9        0.000000        0.133794         3    ;  uncertainty k = 0.203283
        14        13        17        18     9      180.000000       -1.061624         4    ;  uncertainty k = 0.147292
        14        13        17        19     9        0.000000        2.691466         1    ;  uncertainty k = 0.453867
        14        13        17        19     9      180.000000        8.798208         2    ;  uncertainty k = 0.380394
        14        13        17        19     9        0.000000        1.598046         3    ;  uncertainty k = 0.223979
        14        13        17        19     9      180.000000       -0.179595         4    ;  uncertainty k = 0.163636
        14        15        11        39     9        0.000000       -1.316018         1    ;  uncertainty k = 0.563251
        14        15        11        39     9      180.000000        0.589823         2    ;  uncertainty k = 0.361594
        14        15        11        39     9        0.000000        1.032739         3    ;  uncertainty k = 0.238985
        14        15        11        39     9      180.000000        0.080667         4    ;  uncertainty k = 0.058160
        14        15        16        45     9        0.000000       -0.690368         1    ;  uncertainty k = 0.230726
        14        15        16        45     9      180.000000       -0.385889         2    ;  uncertainty k = 0.260443
        14        15        16        45     9        0.000000        0.564060         3    ;  uncertainty k = 0.183828
        14        15        16        45     9      180.000000       -0.078901         4    ;  uncertainty k = 0.096166
        14        15        16        46     9        0.000000       -0.690368         1    ;  uncertainty k = 0.230726
        14        15        16        46     9      180.000000       -0.385889         2    ;  uncertainty k = 0.260443
        14        15        16        46     9        0.000000        0.564060         3    ;  uncertainty k = 0.183828
        14        15        16        46     9      180.000000       -0.078901         4    ;  uncertainty k = 0.096166
        15        11        10        37     9        0.000000        0.646621         1    ;  uncertainty k = 0.517781
        15        11        10        37     9      180.000000       -1.099689         2    ;  uncertainty k = 0.743823
        15        11        10        37     9        0.000000       -0.334778         3    ;  uncertainty k = 0.213644
        15        11        10        37     9      180.000000       -0.018734         4    ;  uncertainty k = 0.206091
        15        11        10        38     9        0.000000        0.646621         1    ;  uncertainty k = 0.517781
        15        11        10        38     9      180.000000       -1.099689         2    ;  uncertainty k = 0.743823
        15        11        10        38     9        0.000000       -0.334778         3    ;  uncertainty k = 0.213644
        15        11        10        38     9      180.000000       -0.018734         4    ;  uncertainty k = 0.206091
        15        11        12        40     9        0.000000        0.466430         1    ;  uncertainty k = 0.514718
        15        11        12        40     9      180.000000       -1.085922         2    ;  uncertainty k = 0.663113
        15        11        12        40     9        0.000000       -0.256973         3    ;  uncertainty k = 0.175595
        15        11        12        40     9      180.000000       -0.013324         4    ;  uncertainty k = 0.178264
        15        11        12        41     9        0.000000        0.466430         1    ;  uncertainty k = 0.514718
        15        11        12        41     9      180.000000       -1.085922         2    ;  uncertainty k = 0.663113
        15        11        12        41     9        0.000000       -0.256973         3    ;  uncertainty k = 0.175595
        15        11        12        41     9      180.000000       -0.013324         4    ;  uncertainty k = 0.178264
        15        14        13        17     9        0.000000       -0.189485         1    ;  uncertainty k = 0.687587
        15        14        13        17     9      180.000000       -0.552353         2    ;  uncertainty k = 0.324263
        15        14        13        17     9        0.000000        0.126431         3    ;  uncertainty k = 0.337048
        15        14        13        17     9      180.000000        0.812611         4    ;  uncertainty k = 0.137239
        16         9        10        37     9        0.000000       -2.106814         1    ;  uncertainty k = 0.722683
        16         9        10        37     9      180.000000        1.271154         2    ;  uncertainty k = 0.391419
        16         9        10        37     9        0.000000        1.144989         3    ;  uncertainty k = 0.081016
        16         9        10        37     9      180.000000        0.249969         4    ;  uncertainty k = 0.124009
        16         9        10        38     9        0.000000       -2.106814         1    ;  uncertainty k = 0.722683
        16         9        10        38     9      180.000000        1.271154         2    ;  uncertainty k = 0.391419
        16         9        10        38     9        0.000000        1.144989         3    ;  uncertainty k = 0.081016
        16         9        10        38     9      180.000000        0.249969         4    ;  uncertainty k = 0.124009
        16        15        11        39     9        0.000000       -1.223110         1    ;  uncertainty k = 0.611378
        16        15        11        39     9      180.000000        0.489635         2    ;  uncertainty k = 0.414979
        16        15        11        39     9        0.000000        0.997353         3    ;  uncertainty k = 0.241669
        16        15        11        39     9      180.000000        0.066778         4    ;  uncertainty k = 0.087125
        16        15        14        42     9        0.000000       -0.501445         1    ;  uncertainty k = 0.128630
        16        15        14        42     9      180.000000       -0.403017         2    ;  uncertainty k = 0.190922
        16        15        14        42     9        0.000000        0.569585         3    ;  uncertainty k = 0.186919
        16        15        14        42     9      180.000000       -0.073502         4    ;  uncertainty k = 0.061663
        16        15        14        43     9        0.000000       -0.501445         1    ;  uncertainty k = 0.128630
        16        15        14        43     9      180.000000       -0.403017         2    ;  uncertainty k = 0.190922
        16        15        14        43     9        0.000000        0.569585         3    ;  uncertainty k = 0.186919
        16        15        14        43     9      180.000000       -0.073502         4    ;  uncertainty k = 0.061663
        17        13        12        40     9        0.000000        1.492026         1    ;  uncertainty k = 0.624173
        17        13        12        40     9      180.000000        0.085992         2    ;  uncertainty k = 0.135849
        17        13        12        40     9        0.000000       -0.074955         3    ;  uncertainty k = 0.058685
        17        13        12        40     9      180.000000        0.296470         4    ;  uncertainty k = 0.076001
        17        13        12        41     9        0.000000        1.492026         1    ;  uncertainty k = 0.624173
        17        13        12        41     9      180.000000        0.085992         2    ;  uncertainty k = 0.135849
        17        13        12        41     9        0.000000       -0.074955         3    ;  uncertainty k = 0.058685
        17        13        12        41     9      180.000000        0.296470         4    ;  uncertainty k = 0.076001
        17        13        14        42     9        0.000000        1.492026         1    ;  uncertainty k = 0.624171
        17        13        14        42     9      180.000000        0.085992         2    ;  uncertainty k = 0.135849
        17        13        14        42     9        0.000000       -0.074956         3    ;  uncertainty k = 0.058686
        17        13        14        42     9      180.000000        0.296470         4    ;  uncertainty k = 0.076001
        17        13        14        43     9        0.000000        1.492026         1    ;  uncertainty k = 0.624171
        17        13        14        43     9      180.000000        0.085992         2    ;  uncertainty k = 0.135849
        17        13        14        43     9        0.000000       -0.074956         3    ;  uncertainty k = 0.058686
        17        13        14        43     9      180.000000        0.296470         4    ;  uncertainty k = 0.076001
        17        19        20        21     9        0.000000       -0.129712         1    ;  uncertainty k = 1.714105
        17        19        20        21     9      180.000000       13.313191         2    ;  uncertainty k = 1.069590
        17        19        20        21     9        0.000000        2.268672         3    ;  uncertainty k = 0.234542
        17        19        20        21     9      180.000000        1.924337         4    ;  uncertainty k = 0.539098
        17        19        24        23     9        0.000000        0.394268         1    ;  uncertainty k = 0.409257
        17        19        24        23     9      180.000000        5.257139         2    ;  uncertainty k = 0.931394
        17        19        24        23     9        0.000000        0.931561         3    ;  uncertainty k = 0.271271
        17        19        24        23     9      180.000000        1.591170         4    ;  uncertainty k = 0.252086
        17        19        24        25     9        0.000000       -0.434031         1    ;  uncertainty k = 1.372140
        17        19        24        25     9      180.000000        8.521953         2    ;  uncertainty k = 0.689135
        17        19        24        25     9        0.000000        1.155956         3    ;  uncertainty k = 0.476398
        17        19        24        25     9      180.000000        1.239451         4    ;  uncertainty k = 0.420995
        18        17        19        20     9        0.000000       -5.461227         1    ;  uncertainty k = 0.986433
        18        17        19        20     9      180.000000        3.359744         2    ;  uncertainty k = 0.228920
        18        17        19        20     9        0.000000       -0.146622         3    ;  uncertainty k = 0.286260
        18        17        19        20     9      180.000000        0.246041         4    ;  uncertainty k = 0.102421
        18        17        19        24     9        0.000000       -3.490737         1    ;  uncertainty k = 1.864948
        18        17        19        24     9      180.000000        3.142834         2    ;  uncertainty k = 0.356760
        18        17        19        24     9        0.000000        0.374095         3    ;  uncertainty k = 0.650117
        18        17        19        24     9      180.000000        0.452159         4    ;  uncertainty k = 0.196526
        19        20        21        22     9        0.000000       -0.168284         1    ;  uncertainty k = 0.549280
        19        20        21        22     9      180.000000       15.062037         2    ;  uncertainty k = 0.433782
        19        20        21        22     9        0.000000        0.970318         3    ;  uncertainty k = 0.374139
        19        20        21        22     9      180.000000        1.431679         4    ;  uncertainty k = 0.331925
        19        20        21        47     9        0.000000       -0.381221         1    ;  uncertainty k = 0.770385
        19        20        21        47     9      180.000000       14.802795         2    ;  uncertainty k = 0.236148
        19        20        21        47     9        0.000000        2.306951         3    ;  uncertainty k = 0.811789
        19        20        21        47     9      180.000000        1.555613         4    ;  uncertainty k = 0.470268
        19        24        23        22     9        0.000000       -0.257847         1    ;  uncertainty k = 0.270350
        19        24        23        22     9      180.000000        8.844175         2    ;  uncertainty k = 0.565675
        19        24        23        22     9        0.000000        0.129701         3    ;  uncertainty k = 0.159129
        19        24        23        22     9      180.000000        1.329508         4    ;  uncertainty k = 0.310978
        19        24        23        49     9        0.000000        0.204181         1    ;  uncertainty k = 0.629747
        19        24        23        49     9      180.000000        6.149438         2    ;  uncertainty k = 0.291947
        19        24        23        49     9        0.000000        1.012791         3    ;  uncertainty k = 0.264078
        19        24        23        49     9      180.000000        1.556691         4    ;  uncertainty k = 0.193434
        19        24        25        26     9        0.000000       -0.660419         1    ;  uncertainty k = 1.998897
        19        24        25        26     9      180.000000        4.459902         2    ;  uncertainty k = 0.314332
        19        24        25        26     9        0.000000        0.464172         3    ;  uncertainty k = 0.355029
        19        24        25        26     9      180.000000        0.002873         4    ;  uncertainty k = 0.142024
        19        24        25        29     9        0.000000       -0.660419         1    ;  uncertainty k = 1.998897
        19        24        25        29     9      180.000000        4.459902         2    ;  uncertainty k = 0.314332
        19        24        25        29     9        0.000000        0.464172         3    ;  uncertainty k = 0.355029
        19        24        25        29     9      180.000000        0.002873         4    ;  uncertainty k = 0.142024
        20        19        24        23     9        0.000000       -0.061843         1    ;  uncertainty k = 0.580067
        20        19        24        23     9      180.000000        6.481930         2    ;  uncertainty k = 0.493164
        20        19        24        23     9        0.000000        0.194504         3    ;  uncertainty k = 0.399468
        20        19        24        23     9      180.000000        1.392187         4    ;  uncertainty k = 0.191087
        20        19        24        25     9        0.000000        0.330996         1    ;  uncertainty k = 0.234362
        20        19        24        25     9      180.000000        8.832769         2    ;  uncertainty k = 0.848690
        20        19        24        25     9        0.000000        0.975622         3    ;  uncertainty k = 0.289379
        20        19        24        25     9      180.000000        1.637294         4    ;  uncertainty k = 0.225465
        20        21        22        23     9        0.000000        0.005149         1    ;  uncertainty k = 0.212338
        20        21        22        23     9      180.000000       14.669835         2    ;  uncertainty k = 0.272813
        20        21        22        23     9        0.000000       -1.278041         3    ;  uncertainty k = 0.696596
        20        21        22        23     9      180.000000        0.891399         4    ;  uncertainty k = 0.236506
        20        21        22        48     9        0.000000        0.013026         1    ;  uncertainty k = 0.206980
        20        21        22        48     9      180.000000        9.115795         2    ;  uncertainty k = 0.718854
        20        21        22        48     9        0.000000        0.910799         3    ;  uncertainty k = 0.299968
        20        21        22        48     9      180.000000        1.630347         4    ;  uncertainty k = 0.174064
        21        20        19        24     9        0.000000       -0.202471         1    ;  uncertainty k = 0.787235
        21        20        19        24     9      180.000000       12.114671         2    ;  uncertainty k = 0.708959
        21        20        19        24     9        0.000000        1.462825         3    ;  uncertainty k = 0.467467
        21        20        19        24     9      180.000000        1.568350         4    ;  uncertainty k = 0.361783
        21        22        23        24     9        0.000000       -0.118353         1    ;  uncertainty k = 0.148073
        21        22        23        24     9      180.000000       13.344204         2    ;  uncertainty k = 0.281714
        21        22        23        24     9        0.000000       -0.924606         3    ;  uncertainty k = 0.451176
        21        22        23        24     9      180.000000        0.893733         4    ;  uncertainty k = 0.203371
        21        22        23        49     9        0.000000       -0.130218         1    ;  uncertainty k = 0.309716
        21        22        23        49     9      180.000000        7.852666         2    ;  uncertainty k = 0.435520
        21        22        23        49     9        0.000000        1.219865         3    ;  uncertainty k = 0.258321
        21        22        23        49     9      180.000000        1.633364         4    ;  uncertainty k = 0.185858
        22        23        24        25     9        0.000000        0.372460         1    ;  uncertainty k = 0.380051
        22        23        24        25     9      180.000000       11.336062         2    ;  uncertainty k = 0.080929
        22        23        24        25     9        0.000000        0.937862         3    ;  uncertainty k = 0.165874
        22        23        24        25     9      180.000000        1.573592         4    ;  uncertainty k = 0.100094
        23        22        21        47     9        0.000000       -0.164211         1    ;  uncertainty k = 0.261435
        23        22        21        47     9      180.000000        6.257384         2    ;  uncertainty k = 0.464259
        23        22        21        47     9        0.000000        1.154125         3    ;  uncertainty k = 0.238612
        23        22        21        47     9      180.000000        1.471326         4    ;  uncertainty k = 0.181524
        23        24        25        26     9        0.000000        2.548351         1    ;  uncertainty k = 0.977037
        23        24        25        26     9      180.000000        4.133075         2    ;  uncertainty k = 0.273814
        23        24        25        26     9        0.000000        0.250178         3    ;  uncertainty k = 0.249767
        23        24        25        26     9      180.000000        0.078304         4    ;  uncertainty k = 0.084426
        23        24        25        29     9        0.000000        2.548351         1    ;  uncertainty k = 0.977037
        23        24        25        29     9      180.000000        4.133075         2    ;  uncertainty k = 0.273814
        23        24        25        29     9        0.000000        0.250178         3    ;  uncertainty k = 0.249767
        23        24        25        29     9      180.000000        0.078304         4    ;  uncertainty k = 0.084426
        24        23        22        48     9        0.000000        0.309177         1    ;  uncertainty k = 0.354318
        24        23        22        48     9      180.000000        8.325473         2    ;  uncertainty k = 0.801911
        24        23        22        48     9        0.000000        1.382582         3    ;  uncertainty k = 0.449921
        24        23        22        48     9      180.000000        1.755409         4    ;  uncertainty k = 0.279719
        24        25        26        27     9        0.000000        0.524776         1    ;  uncertainty k = 2.401032
        24        25        26        27     9      180.000000       14.822351         2    ;  uncertainty k = 0.496402
        24        25        26        27     9        0.000000        1.451968         3    ;  uncertainty k = 0.565164
        24        25        26        27     9      180.000000        0.123155         4    ;  uncertainty k = 0.185010
        24        25        29        28     9        0.000000        0.524776         1    ;  uncertainty k = 2.401032
        24        25        29        28     9      180.000000       14.822351         2    ;  uncertainty k = 0.496402
        24        25        29        28     9        0.000000        1.451968         3    ;  uncertainty k = 0.565164
        24        25        29        28     9      180.000000        0.123155         4    ;  uncertainty k = 0.185010
        25        24        23        49     9        0.000000        0.309582         1    ;  uncertainty k = 0.622680
        25        24        23        49     9      180.000000        8.584270         2    ;  uncertainty k = 0.308545
        25        24        23        49     9        0.000000        0.819705         3    ;  uncertainty k = 0.277866
        25        24        23        49     9      180.000000        1.304575         4    ;  uncertainty k = 0.144826
        25        26        27        28     9        0.000000       -0.033115         1    ;  uncertainty k = 0.483588
        25        26        27        28     9      180.000000       24.405007         2    ;  uncertainty k = 0.368821
        25        26        27        28     9        0.000000       -9.715925         3    ;  uncertainty k = 1.902651
        25        26        27        28     9      180.000000        2.449438         4    ;  uncertainty k = 0.664461
        25        26        27        50     9        0.000000        0.268485         1    ;  uncertainty k = 0.769263
        25        26        27        50     9      180.000000       22.136065         2    ;  uncertainty k = 0.467227
        25        26        27        50     9        0.000000        1.458602         3    ;  uncertainty k = 0.423598
        25        26        27        50     9      180.000000        1.223761         4    ;  uncertainty k = 0.635938
        25        29        28        27     9        0.000000       -0.033115         1    ;  uncertainty k = 0.483588
        25        29        28        27     9      180.000000       24.405007         2    ;  uncertainty k = 0.368821
        25        29        28        27     9        0.000000       -9.715925         3    ;  uncertainty k = 1.902651
        25        29        28        27     9      180.000000        2.449438         4    ;  uncertainty k = 0.664461
        25        29        28        51     9        0.000000        0.268485         1    ;  uncertainty k = 0.769263
        25        29        28        51     9      180.000000       22.136065         2    ;  uncertainty k = 0.467227
        25        29        28        51     9        0.000000        1.458602         3    ;  uncertainty k = 0.423598
        25        29        28        51     9      180.000000        1.223761         4    ;  uncertainty k = 0.635938
        26        25        29        28     9        0.000000       -0.794563         1    ;  uncertainty k = 0.796069
        26        25        29        28     9      180.000000       21.988505         2    ;  uncertainty k = 0.251742
        26        25        29        28     9        0.000000       -8.378256         3    ;  uncertainty k = 1.346371
        26        25        29        28     9      180.000000        1.279753         4    ;  uncertainty k = 0.580873
        26        27        28        29     9        0.000000       -0.476345         1    ;  uncertainty k = 0.946822
        26        27        28        29     9      180.000000       16.667085         2    ;  uncertainty k = 1.318275
        26        27        28        29     9        0.000000      -12.092095         3    ;  uncertainty k = 1.850993
        26        27        28        29     9      180.000000        2.013593         4    ;  uncertainty k = 0.764312
        26        27        28        51     9        0.000000        0.161214         1    ;  uncertainty k = 0.964820
        26        27        28        51     9      180.000000       11.802884         2    ;  uncertainty k = 0.594834
        26        27        28        51     9        0.000000        0.938747         3    ;  uncertainty k = 0.744107
        26        27        28        51     9      180.000000        0.633505         4    ;  uncertainty k = 0.169776
        27        26        25        29     9        0.000000       -0.794563         1    ;  uncertainty k = 0.796069
        27        26        25        29     9      180.000000       21.988505         2    ;  uncertainty k = 0.251742
        27        26        25        29     9        0.000000       -8.378256         3    ;  uncertainty k = 1.346371
        27        26        25        29     9      180.000000        1.279753         4    ;  uncertainty k = 0.580873
        29        28        27        50     9        0.000000        0.161214         1    ;  uncertainty k = 0.964820
        29        28        27        50     9      180.000000       11.802884         2    ;  uncertainty k = 0.594834
        29        28        27        50     9        0.000000        0.938747         3    ;  uncertainty k = 0.744107
        29        28        27        50     9      180.000000        0.633505         4    ;  uncertainty k = 0.169776
        37        10        11        39     9        0.000000        0.359872         1    ;  uncertainty k = 0.316166
        37        10        11        39     9      180.000000       -0.360044         2    ;  uncertainty k = 0.197279
        37        10        11        39     9        0.000000        0.364903         3    ;  uncertainty k = 0.128583
        37        10        11        39     9      180.000000       -0.036803         4    ;  uncertainty k = 0.081429
        38        10        11        39     9        0.000000        0.359872         1    ;  uncertainty k = 0.316166
        38        10        11        39     9      180.000000       -0.360044         2    ;  uncertainty k = 0.197279
        38        10        11        39     9        0.000000        0.364903         3    ;  uncertainty k = 0.128583
        38        10        11        39     9      180.000000       -0.036803         4    ;  uncertainty k = 0.081429
        39        11        12        40     9        0.000000        0.418333         1    ;  uncertainty k = 0.292843
        39        11        12        40     9      180.000000       -0.319955         2    ;  uncertainty k = 0.247075
        39        11        12        40     9        0.000000        0.346837         3    ;  uncertainty k = 0.129266
        39        11        12        40     9      180.000000       -0.039169         4    ;  uncertainty k = 0.063842
        39        11        12        41     9        0.000000        0.418333         1    ;  uncertainty k = 0.292843
        39        11        12        41     9      180.000000       -0.319955         2    ;  uncertainty k = 0.247075
        39        11        12        41     9        0.000000        0.346837         3    ;  uncertainty k = 0.129266
        39        11        12        41     9      180.000000       -0.039169         4    ;  uncertainty k = 0.063842
        39        11        15        44     9        0.000000        3.534566         1    ;  uncertainty k = 1.183407
        39        11        15        44     9      180.000000       -0.219654         2    ;  uncertainty k = 0.641097
        39        11        15        44     9        0.000000        0.578188         3    ;  uncertainty k = 0.579178
        39        11        15        44     9      180.000000        0.212498         4    ;  uncertainty k = 0.291708
        42        14        15        44     9        0.000000        0.418333         1    ;  uncertainty k = 0.292843
        42        14        15        44     9      180.000000       -0.319954         2    ;  uncertainty k = 0.247077
        42        14        15        44     9        0.000000        0.346836         3    ;  uncertainty k = 0.129267
        42        14        15        44     9      180.000000       -0.039168         4    ;  uncertainty k = 0.063841
        43        14        15        44     9        0.000000        0.418333         1    ;  uncertainty k = 0.292843
        43        14        15        44     9      180.000000       -0.319954         2    ;  uncertainty k = 0.247077
        43        14        15        44     9        0.000000        0.346836         3    ;  uncertainty k = 0.129267
        43        14        15        44     9      180.000000       -0.039168         4    ;  uncertainty k = 0.063841
        44        15        16        45     9        0.000000        0.359873         1    ;  uncertainty k = 0.316165
        44        15        16        45     9      180.000000       -0.360044         2    ;  uncertainty k = 0.197281
        44        15        16        45     9        0.000000        0.364903         3    ;  uncertainty k = 0.128582
        44        15        16        45     9      180.000000       -0.036803         4    ;  uncertainty k = 0.081429
        44        15        16        46     9        0.000000        0.359873         1    ;  uncertainty k = 0.316165
        44        15        16        46     9      180.000000       -0.360044         2    ;  uncertainty k = 0.197281
        44        15        16        46     9        0.000000        0.364903         3    ;  uncertainty k = 0.128582
        44        15        16        46     9      180.000000       -0.036803         4    ;  uncertainty k = 0.081429
        47        21        22        48     9        0.000000       -0.259784         1    ;  uncertainty k = 0.184433
        47        21        22        48     9      180.000000        6.754708         2    ;  uncertainty k = 0.251731
        47        21        22        48     9        0.000000       -0.091640         3    ;  uncertainty k = 0.185475
        47        21        22        48     9      180.000000        0.226924         4    ;  uncertainty k = 0.093078
        48        22        23        49     9        0.000000       -0.118906         1    ;  uncertainty k = 0.222809
        48        22        23        49     9      180.000000        8.392430         2    ;  uncertainty k = 0.396569
        48        22        23        49     9        0.000000       -0.544589         3    ;  uncertainty k = 0.382395
        48        22        23        49     9      180.000000        0.145982         4    ;  uncertainty k = 0.212579
        50        27        28        51     9        0.000000       -0.942648         1    ;  uncertainty k = 1.117582
        50        27        28        51     9      180.000000        4.272735         2    ;  uncertainty k = 0.760818
        50        27        28        51     9        0.000000        1.314863         3    ;  uncertainty k = 0.353594
        50        27        28        51     9      180.000000        0.150448         4    ;  uncertainty k = 0.159865

[ dihedrals ] ; impropers
;       ai        aj        ak        al funct           phase               k        pn
         2         1         3         8     4      180.000000       31.911119         2    ;  uncertainty k = 0.074029
         2         3         8         1     4      180.000000       31.911119         2    ;  uncertainty k = 0.074029
         2         8         1         3     4      180.000000       31.911119         2    ;  uncertainty k = 0.074029
         3         2         4        33     4      180.000000        1.149578         2    ;  uncertainty k = 0.472322
         3         4        33         2     4      180.000000        1.149578         2    ;  uncertainty k = 0.472322
         3        33         2         4     4      180.000000        1.149578         2    ;  uncertainty k = 0.472322
         4         3         5         6     4      180.000000       31.911121         2    ;  uncertainty k = 0.074029
         4         5         6         3     4      180.000000       31.911121         2    ;  uncertainty k = 0.074029
         4         6         3         5     4      180.000000       31.911121         2    ;  uncertainty k = 0.074029
         7         6         8         9     4      180.000000       42.641370         2    ;  uncertainty k = 0.061085
         7         8         9         6     4      180.000000       42.641370         2    ;  uncertainty k = 0.061085
         7         9         6         8     4      180.000000       42.641370         2    ;  uncertainty k = 0.061085
         9         7        10        16     4      180.000000        0.056065         2    ;  uncertainty k = 0.081769
         9        10        16         7     4      180.000000        0.056065         2    ;  uncertainty k = 0.081769
         9        16         7        10     4      180.000000        0.056065         2    ;  uncertainty k = 0.081769
        17        13        18        19     4      180.000000       48.954591         2    ;  uncertainty k = 0.024148
        17        18        19        13     4      180.000000       48.954591         2    ;  uncertainty k = 0.024148
        17        19        13        18     4      180.000000       48.954591         2    ;  uncertainty k = 0.024148
        19        17        20        24     4      180.000000       19.129404         2    ;  uncertainty k = 0.200744
        19        20        24        17     4      180.000000       19.129404         2    ;  uncertainty k = 0.200744
        19        24        17        20     4      180.000000       19.129404         2    ;  uncertainty k = 0.200744
        21        20        22        47     4      180.000000       12.905621         2    ;  uncertainty k = 0.111085
        21        22        47        20     4      180.000000       12.905621         2    ;  uncertainty k = 0.111085
        21        47        20        22     4      180.000000       12.905621         2    ;  uncertainty k = 0.111085
        22        21        23        48     4      180.000000        3.046711         2    ;  uncertainty k = 0.200319
        22        23        48        21     4      180.000000        3.046711         2    ;  uncertainty k = 0.200319
        22        48        21        23     4      180.000000        3.046711         2    ;  uncertainty k = 0.200319
        23        22        24        49     4      180.000000        5.494352         2    ;  uncertainty k = 0.133615
        23        24        49        22     4      180.000000        5.494352         2    ;  uncertainty k = 0.133615
        23        49        22        24     4      180.000000        5.494352         2    ;  uncertainty k = 0.133615
        24        19        23        25     4      180.000000       12.025555         2    ;  uncertainty k = 0.171943
        24        23        25        19     4      180.000000       12.025555         2    ;  uncertainty k = 0.171943
        24        25        19        23     4      180.000000       12.025555         2    ;  uncertainty k = 0.171943
        25        24        26        29     4      180.000000        0.120272         2    ;  uncertainty k = 0.268937
        25        26        29        24     4      180.000000        0.120272         2    ;  uncertainty k = 0.268937
        25        29        24        26     4      180.000000        0.120272         2    ;  uncertainty k = 0.268937
        27        26        28        50     4      180.000000        0.357339         2    ;  uncertainty k = 0.461486
        27        28        50        26     4      180.000000        0.357339         2    ;  uncertainty k = 0.461486
        27        50        26        28     4      180.000000        0.357339         2    ;  uncertainty k = 0.461486
        28        27        29        51     4      180.000000        0.357340         2    ;  uncertainty k = 0.461488
        28        29        51        27     4      180.000000        0.357340         2    ;  uncertainty k = 0.461488
        28        51        27        29     4      180.000000        0.357340         2    ;  uncertainty k = 0.461488

[ pairs ]
;       ai        aj funct
         1         4     1
         1         7     1
         1        33     1
         2         5     1
         2         6     1
         2         9     1
         3         7     1
         3        30     1
         3        31     1
         3        32     1
         3        34     1
         3        35     1
         3        36     1
         4         8     1
         4         9     1
         5         7     1
         5        33     1
         6        10     1
         6        16     1
         6        33     1
         6        34     1
         6        35     1
         6        36     1
         7        11     1
         7        15     1
         7        37     1
         7        38     1
         7        45     1
         7        46     1
         8        10     1
         8        16     1
         8        30     1
         8        31     1
         8        32     1
         8        33     1
         9        12     1
         9        14     1
         9        39     1
         9        44     1
        10        13     1
        10        14     1
        10        40     1
        10        41     1
        10        44     1
        10        45     1
        10        46     1
        11        17     1
        11        42     1
        11        43     1
        11        45     1
        11        46     1
        12        16     1
        12        18     1
        12        19     1
        12        37     1
        12        38     1
        12        42     1
        12        43     1
        12        44     1
        13        16     1
        13        20     1
        13        24     1
        13        39     1
        13        44     1
        14        18     1
        14        19     1
        14        39     1
        14        40     1
        14        41     1
        14        45     1
        14        46     1
        15        17     1
        15        37     1
        15        38     1
        15        40     1
        15        41     1
        16        37     1
        16        38     1
        16        39     1
        16        42     1
        16        43     1
        17        21     1
        17        23     1
        17        25     1
        17        40     1
        17        41     1
        17        42     1
        17        43     1
        18        20     1
        18        24     1
        19        22     1
        19        26     1
        19        29     1
        19        47     1
        19        49     1
        20        23     1
        20        25     1
        20        48     1
        21        24     1
        21        49     1
        22        25     1
        23        26     1
        23        29     1
        23        47     1
        24        27     1
        24        28     1
        24        48     1
        25        49     1
        25        50     1
        25        51     1
        26        51     1
        29        50     1
        37        39     1
        38        39     1
        39        40     1
        39        41     1
        39        44     1
        42        44     1
        43        44     1
        44        45     1
        44        46     1
        47        48     1
        48        49     1
        50        51     1
