; ITP file created by ByteFF-joint-25, 2025-07-14 11:28:44.568911

[ atomtypes ]
;name           bonded.type        at.num        mass        charge   ptype           sigma         epsilon
 c0bf                                   6      0.0000       0.00000       A     3.39773e-01     4.50930e-01    ;  uncertainty sigma = 0.000007, epsilon = 0.000592
 c1bf                                   6      0.0000       0.00000       A     3.31511e-01     4.13145e-01    ;  uncertainty sigma = 0.000011, epsilon = 0.000579
 c2bf                                   6      0.0000       0.00000       A     3.31523e-01     4.13243e-01    ;  uncertainty sigma = 0.000013, epsilon = 0.000737
 c3bf                                   6      0.0000       0.00000       A     3.31511e-01     4.13145e-01    ;  uncertainty sigma = 0.000011, epsilon = 0.000579
 c4bf                                   6      0.0000       0.00000       A     3.39773e-01     4.50930e-01    ;  uncertainty sigma = 0.000007, epsilon = 0.000592
 n5bf                                   7      0.0000       0.00000       A     3.38407e-01     3.93685e-01    ;  uncertainty sigma = 0.000013, epsilon = 0.000791
 c6bf                                   6      0.0000       0.00000       A     3.31545e-01     4.13196e-01    ;  uncertainty sigma = 0.000018, epsilon = 0.000667
 n7bf                                   7      0.0000       0.00000       A     3.38407e-01     3.93685e-01    ;  uncertainty sigma = 0.000013, epsilon = 0.000791
 n8bf                                   7      0.0000       0.00000       A     3.18950e-01     8.99076e-01    ;  uncertainty sigma = 0.000052, epsilon = 0.003577
 c9bf                                   6      0.0000       0.00000       A     3.39774e-01     4.50953e-01    ;  uncertainty sigma = 0.000012, epsilon = 0.001229
 c10bf                                  6      0.0000       0.00000       A     3.39776e-01     4.51373e-01    ;  uncertainty sigma = 0.000009, epsilon = 0.000969
 c11bf                                  6      0.0000       0.00000       A     3.39784e-01     4.51219e-01    ;  uncertainty sigma = 0.000006, epsilon = 0.000696
 n12bf                                  7      0.0000       0.00000       A     3.18079e-01     6.84112e-01    ;  uncertainty sigma = 0.000014, epsilon = 0.001025
 c13bf                                  6      0.0000       0.00000       A     3.39784e-01     4.51219e-01    ;  uncertainty sigma = 0.000006, epsilon = 0.000696
 c14bf                                  6      0.0000       0.00000       A     3.39776e-01     4.51373e-01    ;  uncertainty sigma = 0.000009, epsilon = 0.000969
 c15bf                                  6      0.0000       0.00000       A     3.39774e-01     4.50953e-01    ;  uncertainty sigma = 0.000012, epsilon = 0.001229
 c16bf                                  6      0.0000       0.00000       A     3.31530e-01     4.13167e-01    ;  uncertainty sigma = 0.000023, epsilon = 0.001745
 o17bf                                  8      0.0000       0.00000       A     3.04853e-01     6.12088e-01    ;  uncertainty sigma = 0.000030, epsilon = 0.001067
 c18bf                                  6      0.0000       0.00000       A     3.31542e-01     4.12641e-01    ;  uncertainty sigma = 0.000021, epsilon = 0.001387
 c19bf                                  6      0.0000       0.00000       A     3.31523e-01     4.13590e-01    ;  uncertainty sigma = 0.000008, epsilon = 0.000745
 c20bf                                  6      0.0000       0.00000       A     3.31515e-01     4.13360e-01    ;  uncertainty sigma = 0.000002, epsilon = 0.000580
 c21bf                                  6      0.0000       0.00000       A     3.31517e-01     4.13373e-01    ;  uncertainty sigma = 0.000004, epsilon = 0.000656
 c22bf                                  6      0.0000       0.00000       A     3.31518e-01     4.13178e-01    ;  uncertainty sigma = 0.000007, epsilon = 0.000966
 c23bf                                  6      0.0000       0.00000       A     3.31560e-01     4.13490e-01    ;  uncertainty sigma = 0.000015, epsilon = 0.001803
 n24bf                                  7      0.0000       0.00000       A     3.20559e-01     8.53661e-01    ;  uncertainty sigma = 0.000029, epsilon = 0.003164
 n25bf                                  7      0.0000       0.00000       A     3.38413e-01     3.93694e-01    ;  uncertainty sigma = 0.000010, epsilon = 0.000693
 c26bf                                  6      0.0000       0.00000       A     3.31537e-01     4.13587e-01    ;  uncertainty sigma = 0.000007, epsilon = 0.000835
 c27bf                                  6      0.0000       0.00000       A     3.31537e-01     4.13587e-01    ;  uncertainty sigma = 0.000007, epsilon = 0.000835
 n28bf                                  7      0.0000       0.00000       A     3.38413e-01     3.93694e-01    ;  uncertainty sigma = 0.000010, epsilon = 0.000693
 h29bf                                  1      0.0000       0.00000       A     2.60034e-01     8.66332e-02    ;  uncertainty sigma = 0.000007, epsilon = 0.000537
 h30bf                                  1      0.0000       0.00000       A     2.60034e-01     8.66332e-02    ;  uncertainty sigma = 0.000007, epsilon = 0.000537
 h31bf                                  1      0.0000       0.00000       A     2.60034e-01     8.66332e-02    ;  uncertainty sigma = 0.000007, epsilon = 0.000537
 h32bf                                  1      0.0000       0.00000       A     2.62580e-01     6.71311e-02    ;  uncertainty sigma = 0.000016, epsilon = 0.000304
 h33bf                                  1      0.0000       0.00000       A     2.60034e-01     8.66332e-02    ;  uncertainty sigma = 0.000007, epsilon = 0.000537
 h34bf                                  1      0.0000       0.00000       A     2.60034e-01     8.66332e-02    ;  uncertainty sigma = 0.000007, epsilon = 0.000537
 h35bf                                  1      0.0000       0.00000       A     2.60034e-01     8.66332e-02    ;  uncertainty sigma = 0.000007, epsilon = 0.000537
 h36bf                                  1      0.0000       0.00000       A     2.42199e-01     8.66324e-02    ;  uncertainty sigma = 0.000024, epsilon = 0.001250
 h37bf                                  1      0.0000       0.00000       A     2.42199e-01     8.66324e-02    ;  uncertainty sigma = 0.000024, epsilon = 0.001250
 h38bf                                  1      0.0000       0.00000       A     2.59994e-01     8.68892e-02    ;  uncertainty sigma = 0.000026, epsilon = 0.000553
 h39bf                                  1      0.0000       0.00000       A     2.42194e-01     8.66543e-02    ;  uncertainty sigma = 0.000021, epsilon = 0.000863
 h40bf                                  1      0.0000       0.00000       A     2.42194e-01     8.66543e-02    ;  uncertainty sigma = 0.000021, epsilon = 0.000863
 h41bf                                  1      0.0000       0.00000       A     2.42194e-01     8.66545e-02    ;  uncertainty sigma = 0.000021, epsilon = 0.000863
 h42bf                                  1      0.0000       0.00000       A     2.42194e-01     8.66545e-02    ;  uncertainty sigma = 0.000021, epsilon = 0.000863
 h43bf                                  1      0.0000       0.00000       A     2.59994e-01     8.68892e-02    ;  uncertainty sigma = 0.000026, epsilon = 0.000553
 h44bf                                  1      0.0000       0.00000       A     2.42199e-01     8.66324e-02    ;  uncertainty sigma = 0.000024, epsilon = 0.001250
 h45bf                                  1      0.0000       0.00000       A     2.42199e-01     8.66324e-02    ;  uncertainty sigma = 0.000024, epsilon = 0.001250
 h46bf                                  1      0.0000       0.00000       A     2.62559e-01     6.71465e-02    ;  uncertainty sigma = 0.000008, epsilon = 0.000593
 h47bf                                  1      0.0000       0.00000       A     2.62558e-01     6.70324e-02    ;  uncertainty sigma = 0.000010, epsilon = 0.000442
 h48bf                                  1      0.0000       0.00000       A     2.62559e-01     6.69987e-02    ;  uncertainty sigma = 0.000011, epsilon = 0.000481
 h49bf                                  1      0.0000       0.00000       A     2.62555e-01     6.71502e-02    ;  uncertainty sigma = 0.000013, epsilon = 0.000465
 h50bf                                  1      0.0000       0.00000       A     2.53604e-01     6.70805e-02    ;  uncertainty sigma = 0.000028, epsilon = 0.000600
 h51bf                                  1      0.0000       0.00000       A     2.53604e-01     6.70805e-02    ;  uncertainty sigma = 0.000028, epsilon = 0.000600

[ moleculetype ]
;name             nrexcl
 MOL                   3

[ atoms ]
;       nr            type      resi   res      atom      cgnr      charge          mass ; qtot
         1            c0bf         1   UNL        c0         1    -0.15162       12.0110 ; qtot   -0.152
         2            c1bf         1   UNL        c1         2     0.48649       12.0110 ; qtot    0.335
         3            c2bf         1   UNL        c2         3    -0.41183       12.0110 ; qtot   -0.077
         4            c3bf         1   UNL        c3         4     0.48649       12.0110 ; qtot    0.410
         5            c4bf         1   UNL        c4         5    -0.15162       12.0110 ; qtot    0.258
         6            n5bf         1   UNL        n5         6    -0.77862       14.0070 ; qtot   -0.521
         7            c6bf         1   UNL        c6         7     0.90706       12.0110 ; qtot    0.386
         8            n7bf         1   UNL        n7         8    -0.77862       14.0070 ; qtot   -0.392
         9            n8bf         1   UNL        n8         9    -0.79085       14.0070 ; qtot   -1.183
        10            c9bf         1   UNL        c9        10     0.23390       12.0110 ; qtot   -0.949
        11           c10bf         1   UNL       c10        11    -0.09743       12.0110 ; qtot   -1.047
        12           c11bf         1   UNL       c11        12     0.10795       12.0110 ; qtot   -0.939
        13           n12bf         1   UNL       n12        13    -0.47089       14.0070 ; qtot   -1.410
        14           c13bf         1   UNL       c13        14     0.10795       12.0110 ; qtot   -1.302
        15           c14bf         1   UNL       c14        15    -0.09743       12.0110 ; qtot   -1.399
        16           c15bf         1   UNL       c15        16     0.23390       12.0110 ; qtot   -1.165
        17           c16bf         1   UNL       c16        17     0.69282       12.0110 ; qtot   -0.472
        18           o17bf         1   UNL       o17        18    -0.59062       15.9990 ; qtot   -1.063
        19           c18bf         1   UNL       c18        19    -0.12452       12.0110 ; qtot   -1.187
        20           c19bf         1   UNL       c19        20    -0.09478       12.0110 ; qtot   -1.282
        21           c20bf         1   UNL       c20        21    -0.12405       12.0110 ; qtot   -1.406
        22           c21bf         1   UNL       c21        22    -0.10721       12.0110 ; qtot   -1.514
        23           c22bf         1   UNL       c22        23    -0.11698       12.0110 ; qtot   -1.631
        24           c23bf         1   UNL       c23        24     0.04811       12.0110 ; qtot   -1.582
        25           n24bf         1   UNL       n24        25     0.30482       14.0070 ; qtot   -1.278
        26           n25bf         1   UNL       n25        26    -0.47455       14.0070 ; qtot   -1.752
        27           c26bf         1   UNL       c26        27     0.20275       12.0110 ; qtot   -1.549
        28           c27bf         1   UNL       c27        28     0.20275       12.0110 ; qtot   -1.347
        29           n28bf         1   UNL       n28        29    -0.47455       14.0070 ; qtot   -1.821
        30           h29bf         1   UNL       h29        30     0.05868        1.0080 ; qtot   -1.762
        31           h30bf         1   UNL       h30        31     0.05868        1.0080 ; qtot   -1.704
        32           h31bf         1   UNL       h31        32     0.05868        1.0080 ; qtot   -1.645
        33           h32bf         1   UNL       h32        33     0.15114        1.0080 ; qtot   -1.494
        34           h33bf         1   UNL       h33        34     0.05868        1.0080 ; qtot   -1.435
        35           h34bf         1   UNL       h34        35     0.05868        1.0080 ; qtot   -1.377
        36           h35bf         1   UNL       h35        36     0.05868        1.0080 ; qtot   -1.318
        37           h36bf         1   UNL       h36        37     0.05891        1.0080 ; qtot   -1.259
        38           h37bf         1   UNL       h37        38     0.05891        1.0080 ; qtot   -1.200
        39           h38bf         1   UNL       h38        39     0.07237        1.0080 ; qtot   -1.128
        40           h39bf         1   UNL       h39        40     0.05981        1.0080 ; qtot   -1.068
        41           h40bf         1   UNL       h40        41     0.05981        1.0080 ; qtot   -1.008
        42           h41bf         1   UNL       h41        42     0.05981        1.0080 ; qtot   -0.948
        43           h42bf         1   UNL       h42        43     0.05981        1.0080 ; qtot   -0.889
        44           h43bf         1   UNL       h43        44     0.07237        1.0080 ; qtot   -0.816
        45           h44bf         1   UNL       h44        45     0.05891        1.0080 ; qtot   -0.757
        46           h45bf         1   UNL       h45        46     0.05891        1.0080 ; qtot   -0.698
        47           h46bf         1   UNL       h46        47     0.14909        1.0080 ; qtot   -0.549
        48           h47bf         1   UNL       h47        48     0.14070        1.0080 ; qtot   -0.409
        49           h48bf         1   UNL       h48        49     0.13951        1.0080 ; qtot   -0.269
        50           h49bf         1   UNL       h49        50     0.15913        1.0080 ; qtot   -0.110
        51           h50bf         1   UNL       h50        51     0.05496        1.0080 ; qtot   -0.055
        52           h51bf         1   UNL       h51        52     0.05495        1.0080 ; qtot    0.000

[ bonds ]
;       ai        aj funct               r               k
         1         2     1        0.150631   258312.636768    ;  uncertainty r = 0.000036, k = 5.578436
         1        30     1        0.109444   310537.557666    ;  uncertainty r = 0.000015, k = 1.598088
         1        31     1        0.109444   310537.557666    ;  uncertainty r = 0.000015, k = 1.598088
         1        32     1        0.109444   310537.557666    ;  uncertainty r = 0.000015, k = 1.598088
         2         3     1        0.140287   430446.109863    ;  uncertainty r = 0.000066, k = 4.969217
         2         8     1        0.134238   464612.770313    ;  uncertainty r = 0.000041, k = 6.904087
         3         4     1        0.140287   430446.109863    ;  uncertainty r = 0.000066, k = 4.969217
         3        33     1        0.108737   344393.252734    ;  uncertainty r = 0.000026, k = 3.476286
         4         5     1        0.150631   258312.636768    ;  uncertainty r = 0.000036, k = 5.578436
         4         6     1        0.134238   464612.770313    ;  uncertainty r = 0.000041, k = 6.904087
         5        34     1        0.109444   310537.557666    ;  uncertainty r = 0.000015, k = 1.598088
         5        35     1        0.109444   310537.557666    ;  uncertainty r = 0.000015, k = 1.598088
         5        36     1        0.109444   310537.557666    ;  uncertainty r = 0.000015, k = 1.598088
         6         7     1        0.135351   495763.447070    ;  uncertainty r = 0.000102, k = 13.751618
         7         8     1        0.135351   495763.447070    ;  uncertainty r = 0.000102, k = 13.751618
         7         9     1        0.136652   318374.973145    ;  uncertainty r = 0.000092, k = 21.200785
         9        10     1        0.146381   223708.423486    ;  uncertainty r = 0.000058, k = 14.342670
         9        16     1        0.146381   223708.423486    ;  uncertainty r = 0.000058, k = 14.342768
        10        11     1        0.153378   218045.467334    ;  uncertainty r = 0.000067, k = 7.088220
        10        37     1        0.109551   306518.450781    ;  uncertainty r = 0.000069, k = 2.534282
        10        38     1        0.109551   306518.450781    ;  uncertainty r = 0.000069, k = 2.534282
        11        12     1        0.153480   216617.049121    ;  uncertainty r = 0.000023, k = 7.412723
        11        15     1        0.154451   200722.496875    ;  uncertainty r = 0.000080, k = 20.796785
        11        39     1        0.109350   305021.261133    ;  uncertainty r = 0.000029, k = 3.829702
        12        13     1        0.147066   239433.741309    ;  uncertainty r = 0.000053, k = 14.441706
        12        40     1        0.109439   307434.875488    ;  uncertainty r = 0.000026, k = 1.171544
        12        41     1        0.109439   307434.875488    ;  uncertainty r = 0.000026, k = 1.171544
        13        14     1        0.147066   239433.741309    ;  uncertainty r = 0.000053, k = 14.441669
        13        17     1        0.135489   332216.750391    ;  uncertainty r = 0.000053, k = 11.239131
        14        15     1        0.153480   216617.049121    ;  uncertainty r = 0.000023, k = 7.412681
        14        42     1        0.109439   307434.875488    ;  uncertainty r = 0.000026, k = 1.171521
        14        43     1        0.109439   307434.875488    ;  uncertainty r = 0.000026, k = 1.171521
        15        16     1        0.153378   218045.441797    ;  uncertainty r = 0.000067, k = 7.088228
        15        44     1        0.109350   305021.261133    ;  uncertainty r = 0.000029, k = 3.829660
        16        45     1        0.109551   306518.450781    ;  uncertainty r = 0.000069, k = 2.534287
        16        46     1        0.109551   306518.450781    ;  uncertainty r = 0.000069, k = 2.534287
        17        18     1        0.123646   756943.313867    ;  uncertainty r = 0.000078, k = 7.572673
        17        19     1        0.150825   271240.262109    ;  uncertainty r = 0.000058, k = 23.918944
        19        20     1        0.139717   349856.815137    ;  uncertainty r = 0.000069, k = 7.233000
        19        24     1        0.139516   320267.119727    ;  uncertainty r = 0.000100, k = 5.521489
        20        21     1        0.139443   370549.177344    ;  uncertainty r = 0.000034, k = 5.219262
        20        47     1        0.108689   328926.804590    ;  uncertainty r = 0.000024, k = 1.348542
        21        22     1        0.139537   379209.270801    ;  uncertainty r = 0.000039, k = 1.365170
        21        48     1        0.108807   333226.717529    ;  uncertainty r = 0.000020, k = 1.287822
        22        23     1        0.139097   371523.826660    ;  uncertainty r = 0.000014, k = 2.027336
        22        49     1        0.108788   332737.707422    ;  uncertainty r = 0.000013, k = 1.137742
        23        24     1        0.139293   333685.236328    ;  uncertainty r = 0.000120, k = 5.066627
        23        50     1        0.108654   333298.144824    ;  uncertainty r = 0.000015, k = 2.128600
        24        25     1        0.140765   318783.617969    ;  uncertainty r = 0.000107, k = 4.184216
        25        26     1        0.134382   229492.272314    ;  uncertainty r = 0.000067, k = 8.378605
        25        29     1        0.134382   229492.272314    ;  uncertainty r = 0.000067, k = 8.378605
        26        27     1        0.132965   463550.937305    ;  uncertainty r = 0.000052, k = 7.730519
        27        28     1        0.141781   249584.001709    ;  uncertainty r = 0.000103, k = 15.332670
        27        51     1        0.108418   339910.136572    ;  uncertainty r = 0.000037, k = 1.124302
        28        29     1        0.132965   463550.937305    ;  uncertainty r = 0.000052, k = 7.730519
        28        52     1        0.108418   339910.136572    ;  uncertainty r = 0.000037, k = 1.124302

[ angles ]
;       ai        aj        ak funct           theta             cth
         1         2         3     1      122.372604      418.636154    ;  uncertainty theta = 0.002202, k = 0.178974
         1         2         8     1      118.694351      504.935496    ;  uncertainty theta = 0.002079, k = 0.183388
         2         1        30     1      108.943436      385.594359    ;  uncertainty theta = 0.001293, k = 0.046207
         2         1        31     1      108.943436      385.594359    ;  uncertainty theta = 0.001293, k = 0.046207
         2         1        32     1      108.943436      385.594359    ;  uncertainty theta = 0.001293, k = 0.046207
         2         3         4     1      116.498520      460.598349    ;  uncertainty theta = 0.005053, k = 0.122034
         2         3        33     1      121.718430      273.369457    ;  uncertainty theta = 0.001159, k = 0.085456
         2         8         7     1      115.347641      408.898855    ;  uncertainty theta = 0.006383, k = 0.283100
         3         2         8     1      120.465759      656.141103    ;  uncertainty theta = 0.004510, k = 0.102828
         3         4         5     1      122.372604      418.636154    ;  uncertainty theta = 0.002202, k = 0.178974
         3         4         6     1      120.465759      656.141103    ;  uncertainty theta = 0.004510, k = 0.102828
         4         3        33     1      121.718430      273.369457    ;  uncertainty theta = 0.001159, k = 0.085456
         4         5        34     1      108.943436      385.594359    ;  uncertainty theta = 0.001293, k = 0.046207
         4         5        35     1      108.943436      385.594359    ;  uncertainty theta = 0.001293, k = 0.046207
         4         5        36     1      108.943436      385.594359    ;  uncertainty theta = 0.001293, k = 0.046207
         4         6         7     1      115.347641      408.898855    ;  uncertainty theta = 0.006383, k = 0.283100
         5         4         6     1      118.694351      504.935496    ;  uncertainty theta = 0.002079, k = 0.183388
         6         7         8     1      129.113480      717.709797    ;  uncertainty theta = 0.004729, k = 0.118642
         6         7         9     1      119.537033      549.082007    ;  uncertainty theta = 0.007399, k = 0.202209
         7         9        10     1      113.699562      433.285581    ;  uncertainty theta = 0.003934, k = 0.215172
         7         9        16     1      113.699562      433.285581    ;  uncertainty theta = 0.003934, k = 0.215172
         8         7         9     1      119.537033      549.082007    ;  uncertainty theta = 0.007399, k = 0.202209
         9        10        11     1      105.543358      834.662672    ;  uncertainty theta = 0.001817, k = 0.093259
         9        10        37     1      108.562340      456.415882    ;  uncertainty theta = 0.001202, k = 0.062362
         9        10        38     1      108.562340      456.415882    ;  uncertainty theta = 0.001202, k = 0.062362
         9        16        15     1      105.543358      834.662672    ;  uncertainty theta = 0.001817, k = 0.093260
         9        16        45     1      108.562340      456.415882    ;  uncertainty theta = 0.001202, k = 0.062362
         9        16        46     1      108.562340      456.415882    ;  uncertainty theta = 0.001202, k = 0.062362
        10         9        16     1      112.639450      489.228386    ;  uncertainty theta = 0.009972, k = 0.334405
        10        11        12     1      113.001526      495.885112    ;  uncertainty theta = 0.002967, k = 0.272650
        10        11        15     1      106.407143      696.228300    ;  uncertainty theta = 0.000820, k = 0.121960
        10        11        39     1      108.909218      387.529593    ;  uncertainty theta = 0.002428, k = 0.196423
        11        10        37     1      109.942749      401.681046    ;  uncertainty theta = 0.001744, k = 0.042629
        11        10        38     1      109.942749      401.681046    ;  uncertainty theta = 0.001744, k = 0.042629
        11        12        13     1      106.107704      800.252694    ;  uncertainty theta = 0.003120, k = 0.175972
        11        12        40     1      109.812805      398.157914    ;  uncertainty theta = 0.002056, k = 0.096133
        11        12        41     1      109.812805      398.157914    ;  uncertainty theta = 0.002056, k = 0.096133
        11        15        14     1      106.536072      683.535718    ;  uncertainty theta = 0.002057, k = 0.120116
        11        15        16     1      106.407143      696.228492    ;  uncertainty theta = 0.000820, k = 0.121960
        11        15        44     1      109.787766      408.249925    ;  uncertainty theta = 0.001833, k = 0.098421
        12        11        15     1      106.536072      683.535654    ;  uncertainty theta = 0.002057, k = 0.120117
        12        11        39     1      108.976547      381.109245    ;  uncertainty theta = 0.002391, k = 0.150517
        12        13        14     1      114.291725      544.244257    ;  uncertainty theta = 0.003124, k = 0.147477
        12        13        17     1      118.020897      361.490775    ;  uncertainty theta = 0.004562, k = 0.077410
        13        12        40     1      109.290787      458.934703    ;  uncertainty theta = 0.001401, k = 0.102756
        13        12        41     1      109.290787      458.934703    ;  uncertainty theta = 0.001401, k = 0.102756
        13        14        15     1      106.107704      800.252694    ;  uncertainty theta = 0.003120, k = 0.175972
        13        14        42     1      109.290787      458.934703    ;  uncertainty theta = 0.001401, k = 0.102756
        13        14        43     1      109.290787      458.934703    ;  uncertainty theta = 0.001401, k = 0.102756
        13        17        18     1      124.761780      735.477752    ;  uncertainty theta = 0.002037, k = 0.112262
        13        17        19     1      112.584793      377.828077    ;  uncertainty theta = 0.003327, k = 0.224030
        14        13        17     1      118.020897      361.490839    ;  uncertainty theta = 0.004562, k = 0.077410
        14        15        16     1      113.001526      495.885112    ;  uncertainty theta = 0.002967, k = 0.272650
        14        15        44     1      108.976547      381.109245    ;  uncertainty theta = 0.002391, k = 0.150517
        15        11        39     1      109.787766      408.249925    ;  uncertainty theta = 0.001833, k = 0.098421
        15        14        42     1      109.812805      398.157914    ;  uncertainty theta = 0.002056, k = 0.096133
        15        14        43     1      109.812805      398.157914    ;  uncertainty theta = 0.002056, k = 0.096133
        15        16        45     1      109.942749      401.681014    ;  uncertainty theta = 0.001744, k = 0.042629
        15        16        46     1      109.942749      401.681014    ;  uncertainty theta = 0.001744, k = 0.042629
        16        15        44     1      108.909218      387.529561    ;  uncertainty theta = 0.002428, k = 0.196423
        17        19        20     1      121.647217      380.364263    ;  uncertainty theta = 0.005668, k = 0.098724
        17        19        24     1      121.628624      353.452683    ;  uncertainty theta = 0.007972, k = 0.362840
        18        17        19     1      124.961136      485.850209    ;  uncertainty theta = 0.003866, k = 0.294360
        19        20        21     1      121.114120      503.571367    ;  uncertainty theta = 0.003413, k = 0.094651
        19        20        47     1      118.995102      268.897973    ;  uncertainty theta = 0.002634, k = 0.150503
        19        24        23     1      125.753029      387.797190    ;  uncertainty theta = 0.005930, k = 0.224645
        19        24        25     1      116.428123      425.295530    ;  uncertainty theta = 0.006465, k = 0.338077
        20        19        24     1      121.471092      450.829001    ;  uncertainty theta = 0.010155, k = 0.122220
        20        21        22     1      118.267723      513.791638    ;  uncertainty theta = 0.003372, k = 0.024707
        20        21        48     1      120.325211      283.409563    ;  uncertainty theta = 0.002446, k = 0.055613
        21        20        47     1      120.697342      292.257469    ;  uncertainty theta = 0.002070, k = 0.065770
        21        22        23     1      118.625877      504.144101    ;  uncertainty theta = 0.001551, k = 0.029303
        21        22        49     1      120.871132      286.063794    ;  uncertainty theta = 0.000949, k = 0.023201
        22        21        48     1      120.884689      287.786304    ;  uncertainty theta = 0.001552, k = 0.028143
        22        23        24     1      119.921341      508.908208    ;  uncertainty theta = 0.002222, k = 0.095750
        22        23        50     1      121.508621      290.500037    ;  uncertainty theta = 0.000737, k = 0.046404
        23        22        49     1      119.839523      281.581681    ;  uncertainty theta = 0.001577, k = 0.034841
        23        24        25     1      118.259415      453.864469    ;  uncertainty theta = 0.003184, k = 0.163648
        24        23        50     1      117.951843      264.924862    ;  uncertainty theta = 0.003545, k = 0.146057
        24        25        26     1      116.439354      434.252320    ;  uncertainty theta = 0.006800, k = 0.173221
        24        25        29     1      116.439354      434.252320    ;  uncertainty theta = 0.006800, k = 0.173221
        25        26        27     1      105.335411      921.283525    ;  uncertainty theta = 0.004612, k = 0.162990
        25        29        28     1      105.335411      921.283525    ;  uncertainty theta = 0.004612, k = 0.162990
        26        25        29     1      113.886658     1161.036889    ;  uncertainty theta = 0.004145, k = 0.186801
        26        27        28     1      108.874611      885.375859    ;  uncertainty theta = 0.003815, k = 0.097431
        26        27        51     1      119.790878      274.219077    ;  uncertainty theta = 0.003825, k = 0.115835
        27        28        29     1      108.874611      885.375859    ;  uncertainty theta = 0.003815, k = 0.097431
        27        28        52     1      127.065453      242.460680    ;  uncertainty theta = 0.004115, k = 0.077998
        28        27        51     1      127.065453      242.460680    ;  uncertainty theta = 0.004115, k = 0.077998
        29        28        52     1      119.790878      274.219077    ;  uncertainty theta = 0.003825, k = 0.115835
        30         1        31     1      107.153793      312.530167    ;  uncertainty theta = 0.001242, k = 0.032267
        30         1        32     1      107.153793      312.530167    ;  uncertainty theta = 0.001242, k = 0.032267
        31         1        32     1      107.153793      312.530167    ;  uncertainty theta = 0.001242, k = 0.032267
        34         5        35     1      107.153793      312.530167    ;  uncertainty theta = 0.001242, k = 0.032267
        34         5        36     1      107.153793      312.530167    ;  uncertainty theta = 0.001242, k = 0.032267
        35         5        36     1      107.153793      312.530167    ;  uncertainty theta = 0.001242, k = 0.032267
        37        10        38     1      105.123001      312.324913    ;  uncertainty theta = 0.002382, k = 0.114503
        40        12        41     1      105.371437      309.387890    ;  uncertainty theta = 0.003860, k = 0.079571
        42        14        43     1      105.371437      309.387890    ;  uncertainty theta = 0.003860, k = 0.079571
        45        16        46     1      105.123001      312.324913    ;  uncertainty theta = 0.002382, k = 0.114503

[ dihedrals ] ; propers for gromacs 4.5 or higher, use funct 9
;       ai        aj        ak        al funct           phase               k        pn
         1         2         3         4     9        0.000000       -0.007202         1    ;  uncertainty k = 0.501717
         1         2         3         4     9      180.000000        7.613770         2    ;  uncertainty k = 0.266340
         1         2         3         4     9        0.000000        0.944105         3    ;  uncertainty k = 0.227996
         1         2         3         4     9      180.000000        1.305657         4    ;  uncertainty k = 0.239337
         1         2         3        33     9        0.000000       -0.261675         1    ;  uncertainty k = 0.315637
         1         2         3        33     9      180.000000        6.874962         2    ;  uncertainty k = 0.342650
         1         2         3        33     9        0.000000        0.656535         3    ;  uncertainty k = 0.284603
         1         2         3        33     9      180.000000        0.765991         4    ;  uncertainty k = 0.276599
         1         2         8         7     9        0.000000        0.048315         1    ;  uncertainty k = 0.979765
         1         2         8         7     9      180.000000       15.003732         2    ;  uncertainty k = 0.544478
         1         2         8         7     9        0.000000        2.381190         3    ;  uncertainty k = 0.363196
         1         2         8         7     9      180.000000        1.660639         4    ;  uncertainty k = 0.462769
         2         3         4         5     9        0.000000       -0.007202         1    ;  uncertainty k = 0.501717
         2         3         4         5     9      180.000000        7.613770         2    ;  uncertainty k = 0.266340
         2         3         4         5     9        0.000000        0.944105         3    ;  uncertainty k = 0.227996
         2         3         4         5     9      180.000000        1.305657         4    ;  uncertainty k = 0.239337
         2         3         4         6     9        0.000000       -0.216009         1    ;  uncertainty k = 0.356936
         2         3         4         6     9      180.000000       11.910555         2    ;  uncertainty k = 0.424709
         2         3         4         6     9        0.000000       -1.407438         3    ;  uncertainty k = 0.758939
         2         3         4         6     9      180.000000        0.980955         4    ;  uncertainty k = 0.077687
         2         8         7         6     9        0.000000       -0.609060         1    ;  uncertainty k = 0.758199
         2         8         7         6     9      180.000000        8.692615         2    ;  uncertainty k = 0.791818
         2         8         7         6     9        0.000000        0.670286         3    ;  uncertainty k = 0.621159
         2         8         7         6     9      180.000000        0.786580         4    ;  uncertainty k = 0.112571
         2         8         7         9     9        0.000000        0.521917         1    ;  uncertainty k = 0.979110
         2         8         7         9     9      180.000000       10.533274         2    ;  uncertainty k = 0.414227
         2         8         7         9     9        0.000000        1.726081         3    ;  uncertainty k = 0.365721
         2         8         7         9     9      180.000000        0.994637         4    ;  uncertainty k = 0.141068
         3         2         1        30     9        0.000000       -0.250297         1    ;  uncertainty k = 0.274873
         3         2         1        30     9      180.000000        2.290444         2    ;  uncertainty k = 0.171777
         3         2         1        30     9        0.000000        0.278065         3    ;  uncertainty k = 0.038017
         3         2         1        30     9      180.000000        0.146673         4    ;  uncertainty k = 0.025666
         3         2         1        31     9        0.000000       -0.250297         1    ;  uncertainty k = 0.274873
         3         2         1        31     9      180.000000        2.290444         2    ;  uncertainty k = 0.171777
         3         2         1        31     9        0.000000        0.278065         3    ;  uncertainty k = 0.038017
         3         2         1        31     9      180.000000        0.146673         4    ;  uncertainty k = 0.025666
         3         2         1        32     9        0.000000       -0.250297         1    ;  uncertainty k = 0.274873
         3         2         1        32     9      180.000000        2.290444         2    ;  uncertainty k = 0.171777
         3         2         1        32     9        0.000000        0.278065         3    ;  uncertainty k = 0.038017
         3         2         1        32     9      180.000000        0.146673         4    ;  uncertainty k = 0.025666
         3         2         8         7     9        0.000000       -0.347754         1    ;  uncertainty k = 0.474198
         3         2         8         7     9      180.000000       15.075407         2    ;  uncertainty k = 0.177114
         3         2         8         7     9        0.000000        0.171723         3    ;  uncertainty k = 0.438996
         3         2         8         7     9      180.000000        1.128465         4    ;  uncertainty k = 0.364424
         3         4         5        34     9        0.000000       -0.250297         1    ;  uncertainty k = 0.274873
         3         4         5        34     9      180.000000        2.290444         2    ;  uncertainty k = 0.171777
         3         4         5        34     9        0.000000        0.278065         3    ;  uncertainty k = 0.038017
         3         4         5        34     9      180.000000        0.146673         4    ;  uncertainty k = 0.025666
         3         4         5        35     9        0.000000       -0.250297         1    ;  uncertainty k = 0.274873
         3         4         5        35     9      180.000000        2.290444         2    ;  uncertainty k = 0.171777
         3         4         5        35     9        0.000000        0.278065         3    ;  uncertainty k = 0.038017
         3         4         5        35     9      180.000000        0.146673         4    ;  uncertainty k = 0.025666
         3         4         5        36     9        0.000000       -0.250297         1    ;  uncertainty k = 0.274873
         3         4         5        36     9      180.000000        2.290444         2    ;  uncertainty k = 0.171777
         3         4         5        36     9        0.000000        0.278065         3    ;  uncertainty k = 0.038017
         3         4         5        36     9      180.000000        0.146673         4    ;  uncertainty k = 0.025666
         3         4         6         7     9        0.000000       -0.347754         1    ;  uncertainty k = 0.474198
         3         4         6         7     9      180.000000       15.075407         2    ;  uncertainty k = 0.177114
         3         4         6         7     9        0.000000        0.171723         3    ;  uncertainty k = 0.438996
         3         4         6         7     9      180.000000        1.128465         4    ;  uncertainty k = 0.364424
         4         3         2         8     9        0.000000       -0.216009         1    ;  uncertainty k = 0.356936
         4         3         2         8     9      180.000000       11.910555         2    ;  uncertainty k = 0.424709
         4         3         2         8     9        0.000000       -1.407438         3    ;  uncertainty k = 0.758939
         4         3         2         8     9      180.000000        0.980955         4    ;  uncertainty k = 0.077687
         4         6         7         8     9        0.000000       -0.609060         1    ;  uncertainty k = 0.758199
         4         6         7         8     9      180.000000        8.692615         2    ;  uncertainty k = 0.791818
         4         6         7         8     9        0.000000        0.670286         3    ;  uncertainty k = 0.621159
         4         6         7         8     9      180.000000        0.786580         4    ;  uncertainty k = 0.112571
         4         6         7         9     9        0.000000        0.521917         1    ;  uncertainty k = 0.979110
         4         6         7         9     9      180.000000       10.533274         2    ;  uncertainty k = 0.414227
         4         6         7         9     9        0.000000        1.726081         3    ;  uncertainty k = 0.365721
         4         6         7         9     9      180.000000        0.994637         4    ;  uncertainty k = 0.141068
         5         4         3        33     9        0.000000       -0.261675         1    ;  uncertainty k = 0.315637
         5         4         3        33     9      180.000000        6.874962         2    ;  uncertainty k = 0.342650
         5         4         3        33     9        0.000000        0.656535         3    ;  uncertainty k = 0.284603
         5         4         3        33     9      180.000000        0.765991         4    ;  uncertainty k = 0.276599
         5         4         6         7     9        0.000000        0.048315         1    ;  uncertainty k = 0.979765
         5         4         6         7     9      180.000000       15.003732         2    ;  uncertainty k = 0.544478
         5         4         6         7     9        0.000000        2.381190         3    ;  uncertainty k = 0.363196
         5         4         6         7     9      180.000000        1.660639         4    ;  uncertainty k = 0.462769
         6         4         3        33     9        0.000000        0.224609         1    ;  uncertainty k = 0.474805
         6         4         3        33     9      180.000000        8.441723         2    ;  uncertainty k = 0.328864
         6         4         3        33     9        0.000000        1.108367         3    ;  uncertainty k = 0.321336
         6         4         3        33     9      180.000000        1.600213         4    ;  uncertainty k = 0.093449
         6         4         5        34     9        0.000000        0.603364         1    ;  uncertainty k = 0.264623
         6         4         5        34     9      180.000000        3.634560         2    ;  uncertainty k = 0.065840
         6         4         5        34     9        0.000000        0.492173         3    ;  uncertainty k = 0.029988
         6         4         5        34     9      180.000000        0.275109         4    ;  uncertainty k = 0.045162
         6         4         5        35     9        0.000000        0.603364         1    ;  uncertainty k = 0.264623
         6         4         5        35     9      180.000000        3.634560         2    ;  uncertainty k = 0.065840
         6         4         5        35     9        0.000000        0.492173         3    ;  uncertainty k = 0.029988
         6         4         5        35     9      180.000000        0.275109         4    ;  uncertainty k = 0.045162
         6         4         5        36     9        0.000000        0.603364         1    ;  uncertainty k = 0.264623
         6         4         5        36     9      180.000000        3.634560         2    ;  uncertainty k = 0.065840
         6         4         5        36     9        0.000000        0.492173         3    ;  uncertainty k = 0.029988
         6         4         5        36     9      180.000000        0.275109         4    ;  uncertainty k = 0.045162
         6         7         9        10     9        0.000000        5.106263         1    ;  uncertainty k = 0.513053
         6         7         9        10     9      180.000000       11.756744         2    ;  uncertainty k = 0.134928
         6         7         9        10     9        0.000000        0.174633         3    ;  uncertainty k = 0.195421
         6         7         9        10     9      180.000000       -0.347384         4    ;  uncertainty k = 0.051935
         6         7         9        16     9        0.000000        5.106262         1    ;  uncertainty k = 0.513053
         6         7         9        16     9      180.000000       11.756744         2    ;  uncertainty k = 0.134928
         6         7         9        16     9        0.000000        0.174633         3    ;  uncertainty k = 0.195420
         6         7         9        16     9      180.000000       -0.347384         4    ;  uncertainty k = 0.051934
         7         9        10        11     9        0.000000       -5.472950         1    ;  uncertainty k = 1.903105
         7         9        10        11     9      180.000000        0.716175         2    ;  uncertainty k = 0.687896
         7         9        10        11     9        0.000000        0.811633         3    ;  uncertainty k = 0.285403
         7         9        10        11     9      180.000000        0.315930         4    ;  uncertainty k = 0.127584
         7         9        10        37     9        0.000000       -0.203572         1    ;  uncertainty k = 0.772783
         7         9        10        37     9      180.000000        1.020940         2    ;  uncertainty k = 0.423811
         7         9        10        37     9        0.000000        0.580937         3    ;  uncertainty k = 0.130796
         7         9        10        37     9      180.000000        0.377931         4    ;  uncertainty k = 0.101923
         7         9        10        38     9        0.000000       -0.203572         1    ;  uncertainty k = 0.772783
         7         9        10        38     9      180.000000        1.020940         2    ;  uncertainty k = 0.423811
         7         9        10        38     9        0.000000        0.580937         3    ;  uncertainty k = 0.130796
         7         9        10        38     9      180.000000        0.377931         4    ;  uncertainty k = 0.101923
         7         9        16        15     9        0.000000       -5.472951         1    ;  uncertainty k = 1.903105
         7         9        16        15     9      180.000000        0.716175         2    ;  uncertainty k = 0.687896
         7         9        16        15     9        0.000000        0.811634         3    ;  uncertainty k = 0.285402
         7         9        16        15     9      180.000000        0.315929         4    ;  uncertainty k = 0.127584
         7         9        16        45     9        0.000000       -0.203573         1    ;  uncertainty k = 0.772782
         7         9        16        45     9      180.000000        1.020940         2    ;  uncertainty k = 0.423811
         7         9        16        45     9        0.000000        0.580937         3    ;  uncertainty k = 0.130796
         7         9        16        45     9      180.000000        0.377930         4    ;  uncertainty k = 0.101923
         7         9        16        46     9        0.000000       -0.203573         1    ;  uncertainty k = 0.772782
         7         9        16        46     9      180.000000        1.020940         2    ;  uncertainty k = 0.423811
         7         9        16        46     9        0.000000        0.580937         3    ;  uncertainty k = 0.130796
         7         9        16        46     9      180.000000        0.377930         4    ;  uncertainty k = 0.101923
         8         2         1        30     9        0.000000        0.603364         1    ;  uncertainty k = 0.264623
         8         2         1        30     9      180.000000        3.634560         2    ;  uncertainty k = 0.065840
         8         2         1        30     9        0.000000        0.492173         3    ;  uncertainty k = 0.029988
         8         2         1        30     9      180.000000        0.275109         4    ;  uncertainty k = 0.045162
         8         2         1        31     9        0.000000        0.603364         1    ;  uncertainty k = 0.264623
         8         2         1        31     9      180.000000        3.634560         2    ;  uncertainty k = 0.065840
         8         2         1        31     9        0.000000        0.492173         3    ;  uncertainty k = 0.029988
         8         2         1        31     9      180.000000        0.275109         4    ;  uncertainty k = 0.045162
         8         2         1        32     9        0.000000        0.603364         1    ;  uncertainty k = 0.264623
         8         2         1        32     9      180.000000        3.634560         2    ;  uncertainty k = 0.065840
         8         2         1        32     9        0.000000        0.492173         3    ;  uncertainty k = 0.029988
         8         2         1        32     9      180.000000        0.275109         4    ;  uncertainty k = 0.045162
         8         2         3        33     9        0.000000        0.224609         1    ;  uncertainty k = 0.474805
         8         2         3        33     9      180.000000        8.441723         2    ;  uncertainty k = 0.328864
         8         2         3        33     9        0.000000        1.108367         3    ;  uncertainty k = 0.321336
         8         2         3        33     9      180.000000        1.600213         4    ;  uncertainty k = 0.093449
         8         7         9        10     9        0.000000        5.106263         1    ;  uncertainty k = 0.513053
         8         7         9        10     9      180.000000       11.756744         2    ;  uncertainty k = 0.134928
         8         7         9        10     9        0.000000        0.174633         3    ;  uncertainty k = 0.195421
         8         7         9        10     9      180.000000       -0.347384         4    ;  uncertainty k = 0.051935
         8         7         9        16     9        0.000000        5.106262         1    ;  uncertainty k = 0.513053
         8         7         9        16     9      180.000000       11.756744         2    ;  uncertainty k = 0.134928
         8         7         9        16     9        0.000000        0.174633         3    ;  uncertainty k = 0.195420
         8         7         9        16     9      180.000000       -0.347384         4    ;  uncertainty k = 0.051934
         9        10        11        12     9        0.000000       -1.986983         1    ;  uncertainty k = 1.131585
         9        10        11        12     9      180.000000        0.974418         2    ;  uncertainty k = 0.865255
         9        10        11        12     9        0.000000        1.658617         3    ;  uncertainty k = 0.387465
         9        10        11        12     9      180.000000       -0.170489         4    ;  uncertainty k = 0.236446
         9        10        11        15     9        0.000000       -0.248944         1    ;  uncertainty k = 1.669287
         9        10        11        15     9      180.000000        6.161827         2    ;  uncertainty k = 1.110762
         9        10        11        15     9        0.000000        0.670927         3    ;  uncertainty k = 0.347090
         9        10        11        15     9      180.000000       -1.488831         4    ;  uncertainty k = 0.506459
         9        10        11        39     9        0.000000        0.565924         1    ;  uncertainty k = 0.856652
         9        10        11        39     9      180.000000        1.324273         2    ;  uncertainty k = 0.513614
         9        10        11        39     9        0.000000        1.171168         3    ;  uncertainty k = 0.217599
         9        10        11        39     9      180.000000       -0.072433         4    ;  uncertainty k = 0.184790
         9        16        15        11     9        0.000000       -0.248943         1    ;  uncertainty k = 1.669287
         9        16        15        11     9      180.000000        6.161829         2    ;  uncertainty k = 1.110761
         9        16        15        11     9        0.000000        0.670927         3    ;  uncertainty k = 0.347090
         9        16        15        11     9      180.000000       -1.488831         4    ;  uncertainty k = 0.506459
         9        16        15        14     9        0.000000       -1.986983         1    ;  uncertainty k = 1.131581
         9        16        15        14     9      180.000000        0.974419         2    ;  uncertainty k = 0.865256
         9        16        15        14     9        0.000000        1.658617         3    ;  uncertainty k = 0.387464
         9        16        15        14     9      180.000000       -0.170489         4    ;  uncertainty k = 0.236446
         9        16        15        44     9        0.000000        0.565926         1    ;  uncertainty k = 0.856651
         9        16        15        44     9      180.000000        1.324272         2    ;  uncertainty k = 0.513614
         9        16        15        44     9        0.000000        1.171168         3    ;  uncertainty k = 0.217601
         9        16        15        44     9      180.000000       -0.072433         4    ;  uncertainty k = 0.184790
        10         9        16        15     9        0.000000        0.409930         1    ;  uncertainty k = 1.033845
        10         9        16        15     9      180.000000        1.423325         2    ;  uncertainty k = 1.181231
        10         9        16        15     9        0.000000        0.860226         3    ;  uncertainty k = 0.332034
        10         9        16        15     9      180.000000        0.010765         4    ;  uncertainty k = 0.168707
        10         9        16        45     9        0.000000       -2.106813         1    ;  uncertainty k = 0.722683
        10         9        16        45     9      180.000000        1.271153         2    ;  uncertainty k = 0.391419
        10         9        16        45     9        0.000000        1.144989         3    ;  uncertainty k = 0.081016
        10         9        16        45     9      180.000000        0.249969         4    ;  uncertainty k = 0.124009
        10         9        16        46     9        0.000000       -2.106813         1    ;  uncertainty k = 0.722683
        10         9        16        46     9      180.000000        1.271153         2    ;  uncertainty k = 0.391419
        10         9        16        46     9        0.000000        1.144989         3    ;  uncertainty k = 0.081016
        10         9        16        46     9      180.000000        0.249969         4    ;  uncertainty k = 0.124009
        10        11        12        13     9        0.000000       -2.553642         1    ;  uncertainty k = 1.026054
        10        11        12        13     9      180.000000       -0.018661         2    ;  uncertainty k = 0.745822
        10        11        12        13     9        0.000000        1.607209         3    ;  uncertainty k = 0.236201
        10        11        12        13     9      180.000000       -0.188588         4    ;  uncertainty k = 0.120205
        10        11        12        40     9        0.000000       -0.498818         1    ;  uncertainty k = 0.107247
        10        11        12        40     9      180.000000       -0.409706         2    ;  uncertainty k = 0.197166
        10        11        12        40     9        0.000000        0.564543         3    ;  uncertainty k = 0.186998
        10        11        12        40     9      180.000000       -0.072177         4    ;  uncertainty k = 0.062323
        10        11        12        41     9        0.000000       -0.498818         1    ;  uncertainty k = 0.107247
        10        11        12        41     9      180.000000       -0.409706         2    ;  uncertainty k = 0.197166
        10        11        12        41     9        0.000000        0.564543         3    ;  uncertainty k = 0.186998
        10        11        12        41     9      180.000000       -0.072177         4    ;  uncertainty k = 0.062323
        10        11        15        14     9        0.000000       -3.847150         1    ;  uncertainty k = 0.842081
        10        11        15        14     9      180.000000        0.994502         2    ;  uncertainty k = 1.017626
        10        11        15        14     9        0.000000        1.189094         3    ;  uncertainty k = 0.581588
        10        11        15        14     9      180.000000       -0.416044         4    ;  uncertainty k = 0.334399
        10        11        15        16     9        0.000000       -3.896618         1    ;  uncertainty k = 1.087275
        10        11        15        16     9      180.000000        1.035025         2    ;  uncertainty k = 1.026286
        10        11        15        16     9        0.000000        1.207838         3    ;  uncertainty k = 0.671623
        10        11        15        16     9      180.000000       -0.436931         4    ;  uncertainty k = 0.343366
        10        11        15        44     9        0.000000       -1.223112         1    ;  uncertainty k = 0.611377
        10        11        15        44     9      180.000000        0.489634         2    ;  uncertainty k = 0.414978
        10        11        15        44     9        0.000000        0.997353         3    ;  uncertainty k = 0.241670
        10        11        15        44     9      180.000000        0.066778         4    ;  uncertainty k = 0.087125
        11        10         9        16     9        0.000000        0.409931         1    ;  uncertainty k = 1.033845
        11        10         9        16     9      180.000000        1.423324         2    ;  uncertainty k = 1.181232
        11        10         9        16     9        0.000000        0.860226         3    ;  uncertainty k = 0.332034
        11        10         9        16     9      180.000000        0.010765         4    ;  uncertainty k = 0.168708
        11        12        13        14     9        0.000000       -0.577894         1    ;  uncertainty k = 0.965263
        11        12        13        14     9      180.000000        0.209543         2    ;  uncertainty k = 0.707884
        11        12        13        14     9        0.000000        0.796577         3    ;  uncertainty k = 0.216244
        11        12        13        14     9      180.000000        0.149599         4    ;  uncertainty k = 0.256658
        11        12        13        17     9        0.000000       -0.048248         1    ;  uncertainty k = 0.771541
        11        12        13        17     9      180.000000       -0.518657         2    ;  uncertainty k = 0.369846
        11        12        13        17     9        0.000000        0.221125         3    ;  uncertainty k = 0.324608
        11        12        13        17     9      180.000000        0.750102         4    ;  uncertainty k = 0.141193
        11        15        14        13     9        0.000000       -0.756384         1    ;  uncertainty k = 0.691038
        11        15        14        13     9      180.000000        5.856437         2    ;  uncertainty k = 0.964493
        11        15        14        13     9        0.000000        0.445306         3    ;  uncertainty k = 0.293243
        11        15        14        13     9      180.000000       -1.144824         4    ;  uncertainty k = 0.220768
        11        15        14        42     9        0.000000        0.480411         1    ;  uncertainty k = 0.492791
        11        15        14        42     9      180.000000       -1.104496         2    ;  uncertainty k = 0.672329
        11        15        14        42     9        0.000000       -0.270073         3    ;  uncertainty k = 0.170671
        11        15        14        42     9      180.000000       -0.013160         4    ;  uncertainty k = 0.174221
        11        15        14        43     9        0.000000        0.480411         1    ;  uncertainty k = 0.492791
        11        15        14        43     9      180.000000       -1.104496         2    ;  uncertainty k = 0.672329
        11        15        14        43     9        0.000000       -0.270073         3    ;  uncertainty k = 0.170671
        11        15        14        43     9      180.000000       -0.013160         4    ;  uncertainty k = 0.174221
        11        15        16        45     9        0.000000        0.646621         1    ;  uncertainty k = 0.517783
        11        15        16        45     9      180.000000       -1.099688         2    ;  uncertainty k = 0.743824
        11        15        16        45     9        0.000000       -0.334779         3    ;  uncertainty k = 0.213643
        11        15        16        45     9      180.000000       -0.018734         4    ;  uncertainty k = 0.206092
        11        15        16        46     9        0.000000        0.646621         1    ;  uncertainty k = 0.517783
        11        15        16        46     9      180.000000       -1.099688         2    ;  uncertainty k = 0.743824
        11        15        16        46     9        0.000000       -0.334779         3    ;  uncertainty k = 0.213643
        11        15        16        46     9      180.000000       -0.018734         4    ;  uncertainty k = 0.206092
        12        11        10        37     9        0.000000       -0.670734         1    ;  uncertainty k = 0.233995
        12        11        10        37     9      180.000000       -0.386310         2    ;  uncertainty k = 0.258590
        12        11        10        37     9        0.000000        0.557637         3    ;  uncertainty k = 0.179621
        12        11        10        37     9      180.000000       -0.081826         4    ;  uncertainty k = 0.095492
        12        11        10        38     9        0.000000       -0.670734         1    ;  uncertainty k = 0.233995
        12        11        10        38     9      180.000000       -0.386310         2    ;  uncertainty k = 0.258590
        12        11        10        38     9        0.000000        0.557637         3    ;  uncertainty k = 0.179621
        12        11        10        38     9      180.000000       -0.081826         4    ;  uncertainty k = 0.095492
        12        11        15        14     9        0.000000       -3.717091         1    ;  uncertainty k = 0.646014
        12        11        15        14     9      180.000000        0.952705         2    ;  uncertainty k = 0.984304
        12        11        15        14     9        0.000000        1.178983         3    ;  uncertainty k = 0.499657
        12        11        15        14     9      180.000000       -0.410261         4    ;  uncertainty k = 0.338854
        12        11        15        16     9        0.000000       -3.847151         1    ;  uncertainty k = 0.842082
        12        11        15        16     9      180.000000        0.994504         2    ;  uncertainty k = 1.017625
        12        11        15        16     9        0.000000        1.189094         3    ;  uncertainty k = 0.581588
        12        11        15        16     9      180.000000       -0.416044         4    ;  uncertainty k = 0.334399
        12        11        15        44     9        0.000000       -1.291634         1    ;  uncertainty k = 0.560343
        12        11        15        44     9      180.000000        0.594321         2    ;  uncertainty k = 0.368266
        12        11        15        44     9        0.000000        1.030260         3    ;  uncertainty k = 0.246250
        12        11        15        44     9      180.000000        0.081405         4    ;  uncertainty k = 0.059901
        12        13        14        15     9        0.000000       -0.577894         1    ;  uncertainty k = 0.965264
        12        13        14        15     9      180.000000        0.209542         2    ;  uncertainty k = 0.707883
        12        13        14        15     9        0.000000        0.796577         3    ;  uncertainty k = 0.216244
        12        13        14        15     9      180.000000        0.149599         4    ;  uncertainty k = 0.256658
        12        13        14        42     9        0.000000       -1.853142         1    ;  uncertainty k = 0.582033
        12        13        14        42     9      180.000000        1.033698         2    ;  uncertainty k = 0.450442
        12        13        14        42     9        0.000000        1.252345         3    ;  uncertainty k = 0.140560
        12        13        14        42     9      180.000000        0.292848         4    ;  uncertainty k = 0.121326
        12        13        14        43     9        0.000000       -1.853142         1    ;  uncertainty k = 0.582033
        12        13        14        43     9      180.000000        1.033698         2    ;  uncertainty k = 0.450442
        12        13        14        43     9        0.000000        1.252345         3    ;  uncertainty k = 0.140560
        12        13        14        43     9      180.000000        0.292848         4    ;  uncertainty k = 0.121326
        12        13        17        18     9        0.000000        5.936148         1    ;  uncertainty k = 0.417343
        12        13        17        18     9      180.000000       16.878802         2    ;  uncertainty k = 0.193431
        12        13        17        18     9        0.000000        0.213255         3    ;  uncertainty k = 0.136425
        12        13        17        18     9      180.000000       -1.067389         4    ;  uncertainty k = 0.149505
        12        13        17        19     9        0.000000        3.624540         1    ;  uncertainty k = 1.250152
        12        13        17        19     9      180.000000        8.356774         2    ;  uncertainty k = 0.401913
        12        13        17        19     9        0.000000        1.744292         3    ;  uncertainty k = 0.393815
        12        13        17        19     9      180.000000        0.054924         4    ;  uncertainty k = 0.224136
        13        12        11        15     9        0.000000       -0.756383         1    ;  uncertainty k = 0.691039
        13        12        11        15     9      180.000000        5.856438         2    ;  uncertainty k = 0.964489
        13        12        11        15     9        0.000000        0.445306         3    ;  uncertainty k = 0.293243
        13        12        11        15     9      180.000000       -1.144824         4    ;  uncertainty k = 0.220768
        13        12        11        39     9        0.000000        0.134769         1    ;  uncertainty k = 0.685952
        13        12        11        39     9      180.000000        0.831761         2    ;  uncertainty k = 0.416184
        13        12        11        39     9        0.000000        1.099682         3    ;  uncertainty k = 0.160463
        13        12        11        39     9      180.000000       -0.068376         4    ;  uncertainty k = 0.100460
        13        14        15        16     9        0.000000       -2.553641         1    ;  uncertainty k = 1.026052
        13        14        15        16     9      180.000000       -0.018662         2    ;  uncertainty k = 0.745823
        13        14        15        16     9        0.000000        1.607209         3    ;  uncertainty k = 0.236202
        13        14        15        16     9      180.000000       -0.188588         4    ;  uncertainty k = 0.120204
        13        14        15        44     9        0.000000        0.134769         1    ;  uncertainty k = 0.685952
        13        14        15        44     9      180.000000        0.831760         2    ;  uncertainty k = 0.416184
        13        14        15        44     9        0.000000        1.099681         3    ;  uncertainty k = 0.160462
        13        14        15        44     9      180.000000       -0.068376         4    ;  uncertainty k = 0.100460
        13        17        19        20     9        0.000000        2.142964         1    ;  uncertainty k = 1.003646
        13        17        19        20     9      180.000000        5.118825         2    ;  uncertainty k = 0.432190
        13        17        19        20     9        0.000000        0.279840         3    ;  uncertainty k = 0.191305
        13        17        19        20     9      180.000000        0.314996         4    ;  uncertainty k = 0.151520
        13        17        19        24     9        0.000000        2.687150         1    ;  uncertainty k = 1.012144
        13        17        19        24     9      180.000000        5.654199         2    ;  uncertainty k = 0.329251
        13        17        19        24     9        0.000000       -0.110326         3    ;  uncertainty k = 0.116382
        13        17        19        24     9      180.000000        0.460145         4    ;  uncertainty k = 0.154597
        14        13        12        40     9        0.000000       -1.853141         1    ;  uncertainty k = 0.582034
        14        13        12        40     9      180.000000        1.033695         2    ;  uncertainty k = 0.450442
        14        13        12        40     9        0.000000        1.252346         3    ;  uncertainty k = 0.140560
        14        13        12        40     9      180.000000        0.292848         4    ;  uncertainty k = 0.121326
        14        13        12        41     9        0.000000       -1.853141         1    ;  uncertainty k = 0.582034
        14        13        12        41     9      180.000000        1.033695         2    ;  uncertainty k = 0.450442
        14        13        12        41     9        0.000000        1.252346         3    ;  uncertainty k = 0.140560
        14        13        12        41     9      180.000000        0.292848         4    ;  uncertainty k = 0.121326
        14        13        17        18     9        0.000000        5.936148         1    ;  uncertainty k = 0.417343
        14        13        17        18     9      180.000000       16.878798         2    ;  uncertainty k = 0.193430
        14        13        17        18     9        0.000000        0.213255         3    ;  uncertainty k = 0.136425
        14        13        17        18     9      180.000000       -1.067389         4    ;  uncertainty k = 0.149505
        14        13        17        19     9        0.000000        3.624541         1    ;  uncertainty k = 1.250149
        14        13        17        19     9      180.000000        8.356777         2    ;  uncertainty k = 0.401912
        14        13        17        19     9        0.000000        1.744293         3    ;  uncertainty k = 0.393815
        14        13        17        19     9      180.000000        0.054923         4    ;  uncertainty k = 0.224135
        14        15        11        39     9        0.000000       -1.291633         1    ;  uncertainty k = 0.560343
        14        15        11        39     9      180.000000        0.594321         2    ;  uncertainty k = 0.368268
        14        15        11        39     9        0.000000        1.030260         3    ;  uncertainty k = 0.246250
        14        15        11        39     9      180.000000        0.081405         4    ;  uncertainty k = 0.059900
        14        15        16        45     9        0.000000       -0.670733         1    ;  uncertainty k = 0.233996
        14        15        16        45     9      180.000000       -0.386309         2    ;  uncertainty k = 0.258591
        14        15        16        45     9        0.000000        0.557638         3    ;  uncertainty k = 0.179621
        14        15        16        45     9      180.000000       -0.081826         4    ;  uncertainty k = 0.095492
        14        15        16        46     9        0.000000       -0.670733         1    ;  uncertainty k = 0.233996
        14        15        16        46     9      180.000000       -0.386309         2    ;  uncertainty k = 0.258591
        14        15        16        46     9        0.000000        0.557638         3    ;  uncertainty k = 0.179621
        14        15        16        46     9      180.000000       -0.081826         4    ;  uncertainty k = 0.095492
        15        11        10        37     9        0.000000        0.646621         1    ;  uncertainty k = 0.517781
        15        11        10        37     9      180.000000       -1.099689         2    ;  uncertainty k = 0.743823
        15        11        10        37     9        0.000000       -0.334778         3    ;  uncertainty k = 0.213644
        15        11        10        37     9      180.000000       -0.018734         4    ;  uncertainty k = 0.206091
        15        11        10        38     9        0.000000        0.646621         1    ;  uncertainty k = 0.517781
        15        11        10        38     9      180.000000       -1.099689         2    ;  uncertainty k = 0.743823
        15        11        10        38     9        0.000000       -0.334778         3    ;  uncertainty k = 0.213644
        15        11        10        38     9      180.000000       -0.018734         4    ;  uncertainty k = 0.206091
        15        11        12        40     9        0.000000        0.480411         1    ;  uncertainty k = 0.492791
        15        11        12        40     9      180.000000       -1.104495         2    ;  uncertainty k = 0.672328
        15        11        12        40     9        0.000000       -0.270073         3    ;  uncertainty k = 0.170671
        15        11        12        40     9      180.000000       -0.013161         4    ;  uncertainty k = 0.174221
        15        11        12        41     9        0.000000        0.480411         1    ;  uncertainty k = 0.492791
        15        11        12        41     9      180.000000       -1.104495         2    ;  uncertainty k = 0.672328
        15        11        12        41     9        0.000000       -0.270073         3    ;  uncertainty k = 0.170671
        15        11        12        41     9      180.000000       -0.013161         4    ;  uncertainty k = 0.174221
        15        14        13        17     9        0.000000       -0.048249         1    ;  uncertainty k = 0.771538
        15        14        13        17     9      180.000000       -0.518657         2    ;  uncertainty k = 0.369846
        15        14        13        17     9        0.000000        0.221125         3    ;  uncertainty k = 0.324608
        15        14        13        17     9      180.000000        0.750102         4    ;  uncertainty k = 0.141192
        16         9        10        37     9        0.000000       -2.106814         1    ;  uncertainty k = 0.722683
        16         9        10        37     9      180.000000        1.271154         2    ;  uncertainty k = 0.391419
        16         9        10        37     9        0.000000        1.144989         3    ;  uncertainty k = 0.081016
        16         9        10        37     9      180.000000        0.249969         4    ;  uncertainty k = 0.124009
        16         9        10        38     9        0.000000       -2.106814         1    ;  uncertainty k = 0.722683
        16         9        10        38     9      180.000000        1.271154         2    ;  uncertainty k = 0.391419
        16         9        10        38     9        0.000000        1.144989         3    ;  uncertainty k = 0.081016
        16         9        10        38     9      180.000000        0.249969         4    ;  uncertainty k = 0.124009
        16        15        11        39     9        0.000000       -1.223110         1    ;  uncertainty k = 0.611378
        16        15        11        39     9      180.000000        0.489635         2    ;  uncertainty k = 0.414979
        16        15        11        39     9        0.000000        0.997353         3    ;  uncertainty k = 0.241669
        16        15        11        39     9      180.000000        0.066778         4    ;  uncertainty k = 0.087125
        16        15        14        42     9        0.000000       -0.498818         1    ;  uncertainty k = 0.107248
        16        15        14        42     9      180.000000       -0.409705         2    ;  uncertainty k = 0.197166
        16        15        14        42     9        0.000000        0.564544         3    ;  uncertainty k = 0.186998
        16        15        14        42     9      180.000000       -0.072177         4    ;  uncertainty k = 0.062323
        16        15        14        43     9        0.000000       -0.498818         1    ;  uncertainty k = 0.107248
        16        15        14        43     9      180.000000       -0.409705         2    ;  uncertainty k = 0.197166
        16        15        14        43     9        0.000000        0.564544         3    ;  uncertainty k = 0.186998
        16        15        14        43     9      180.000000       -0.072177         4    ;  uncertainty k = 0.062323
        17        13        12        40     9        0.000000        1.377335         1    ;  uncertainty k = 0.707067
        17        13        12        40     9      180.000000        0.130202         2    ;  uncertainty k = 0.115341
        17        13        12        40     9        0.000000        0.026326         3    ;  uncertainty k = 0.101280
        17        13        12        40     9      180.000000        0.261591         4    ;  uncertainty k = 0.059749
        17        13        12        41     9        0.000000        1.377335         1    ;  uncertainty k = 0.707067
        17        13        12        41     9      180.000000        0.130202         2    ;  uncertainty k = 0.115341
        17        13        12        41     9        0.000000        0.026326         3    ;  uncertainty k = 0.101280
        17        13        12        41     9      180.000000        0.261591         4    ;  uncertainty k = 0.059749
        17        13        14        42     9        0.000000        1.377334         1    ;  uncertainty k = 0.707068
        17        13        14        42     9      180.000000        0.130202         2    ;  uncertainty k = 0.115342
        17        13        14        42     9        0.000000        0.026326         3    ;  uncertainty k = 0.101280
        17        13        14        42     9      180.000000        0.261591         4    ;  uncertainty k = 0.059748
        17        13        14        43     9        0.000000        1.377334         1    ;  uncertainty k = 0.707068
        17        13        14        43     9      180.000000        0.130202         2    ;  uncertainty k = 0.115342
        17        13        14        43     9        0.000000        0.026326         3    ;  uncertainty k = 0.101280
        17        13        14        43     9      180.000000        0.261591         4    ;  uncertainty k = 0.059748
        17        19        20        21     9        0.000000        0.354727         1    ;  uncertainty k = 0.431567
        17        19        20        21     9      180.000000        9.094318         2    ;  uncertainty k = 0.668242
        17        19        20        21     9        0.000000        1.350816         3    ;  uncertainty k = 0.192894
        17        19        20        21     9      180.000000        1.952347         4    ;  uncertainty k = 0.288979
        17        19        20        47     9        0.000000        0.174198         1    ;  uncertainty k = 0.348468
        17        19        20        47     9      180.000000        8.555006         2    ;  uncertainty k = 0.533450
        17        19        20        47     9        0.000000        0.868128         3    ;  uncertainty k = 0.240583
        17        19        20        47     9      180.000000        1.325448         4    ;  uncertainty k = 0.257137
        17        19        24        23     9        0.000000        0.213020         1    ;  uncertainty k = 0.179286
        17        19        24        23     9      180.000000        6.617584         2    ;  uncertainty k = 0.385051
        17        19        24        23     9        0.000000        1.306025         3    ;  uncertainty k = 0.208230
        17        19        24        23     9      180.000000        1.704387         4    ;  uncertainty k = 0.191354
        17        19        24        25     9        0.000000       -0.217484         1    ;  uncertainty k = 0.983588
        17        19        24        25     9      180.000000        9.727449         2    ;  uncertainty k = 0.626094
        17        19        24        25     9        0.000000        1.332738         3    ;  uncertainty k = 0.490641
        17        19        24        25     9      180.000000        1.240678         4    ;  uncertainty k = 0.400023
        18        17        19        20     9        0.000000       -2.119039         1    ;  uncertainty k = 0.366119
        18        17        19        20     9      180.000000        4.326725         2    ;  uncertainty k = 0.468916
        18        17        19        20     9        0.000000        0.535265         3    ;  uncertainty k = 0.188979
        18        17        19        20     9      180.000000        0.365742         4    ;  uncertainty k = 0.147912
        18        17        19        24     9        0.000000       -5.019367         1    ;  uncertainty k = 1.280411
        18        17        19        24     9      180.000000        5.642591         2    ;  uncertainty k = 0.512044
        18        17        19        24     9        0.000000        0.481119         3    ;  uncertainty k = 0.454045
        18        17        19        24     9      180.000000        0.509827         4    ;  uncertainty k = 0.255749
        19        20        21        22     9        0.000000       -0.123147         1    ;  uncertainty k = 0.176598
        19        20        21        22     9      180.000000       13.560481         2    ;  uncertainty k = 0.365414
        19        20        21        22     9        0.000000       -0.798168         3    ;  uncertainty k = 0.387396
        19        20        21        22     9      180.000000        0.740909         4    ;  uncertainty k = 0.227581
        19        20        21        48     9        0.000000       -0.041407         1    ;  uncertainty k = 0.161910
        19        20        21        48     9      180.000000        7.825832         2    ;  uncertainty k = 0.570724
        19        20        21        48     9        0.000000        1.237379         3    ;  uncertainty k = 0.270337
        19        20        21        48     9      180.000000        1.753675         4    ;  uncertainty k = 0.220367
        19        24        23        22     9        0.000000       -0.258936         1    ;  uncertainty k = 0.435480
        19        24        23        22     9      180.000000        9.549903         2    ;  uncertainty k = 0.543447
        19        24        23        22     9        0.000000        0.251230         3    ;  uncertainty k = 0.217720
        19        24        23        22     9      180.000000        1.280885         4    ;  uncertainty k = 0.364312
        19        24        23        50     9        0.000000       -0.049643         1    ;  uncertainty k = 0.271465
        19        24        23        50     9      180.000000        6.356673         2    ;  uncertainty k = 0.378965
        19        24        23        50     9        0.000000        1.140327         3    ;  uncertainty k = 0.167118
        19        24        23        50     9      180.000000        1.580172         4    ;  uncertainty k = 0.233218
        19        24        25        26     9        0.000000       -1.158685         1    ;  uncertainty k = 0.936015
        19        24        25        26     9      180.000000        3.925619         2    ;  uncertainty k = 0.196570
        19        24        25        26     9        0.000000        0.699499         3    ;  uncertainty k = 0.264259
        19        24        25        26     9      180.000000       -0.097912         4    ;  uncertainty k = 0.152856
        19        24        25        29     9        0.000000       -1.158685         1    ;  uncertainty k = 0.936015
        19        24        25        29     9      180.000000        3.925619         2    ;  uncertainty k = 0.196570
        19        24        25        29     9        0.000000        0.699499         3    ;  uncertainty k = 0.264259
        19        24        25        29     9      180.000000       -0.097912         4    ;  uncertainty k = 0.152856
        20        19        24        23     9        0.000000       -0.676027         1    ;  uncertainty k = 0.492354
        20        19        24        23     9      180.000000        6.844480         2    ;  uncertainty k = 0.636749
        20        19        24        23     9        0.000000        0.062425         3    ;  uncertainty k = 0.309907
        20        19        24        23     9      180.000000        1.171626         4    ;  uncertainty k = 0.169904
        20        19        24        25     9        0.000000        0.492542         1    ;  uncertainty k = 0.409284
        20        19        24        25     9      180.000000        9.697456         2    ;  uncertainty k = 0.444261
        20        19        24        25     9        0.000000        1.238268         3    ;  uncertainty k = 0.221638
        20        19        24        25     9      180.000000        1.478118         4    ;  uncertainty k = 0.215692
        20        21        22        23     9        0.000000       -0.060906         1    ;  uncertainty k = 0.201226
        20        21        22        23     9      180.000000       14.111713         2    ;  uncertainty k = 0.190292
        20        21        22        23     9        0.000000       -1.158333         3    ;  uncertainty k = 0.332373
        20        21        22        23     9      180.000000        0.637630         4    ;  uncertainty k = 0.159223
        20        21        22        49     9        0.000000       -0.045315         1    ;  uncertainty k = 0.203316
        20        21        22        49     9      180.000000        7.378314         2    ;  uncertainty k = 0.222742
        20        21        22        49     9        0.000000        1.380972         3    ;  uncertainty k = 0.255258
        20        21        22        49     9      180.000000        1.708328         4    ;  uncertainty k = 0.047729
        21        20        19        24     9        0.000000       -0.216448         1    ;  uncertainty k = 0.224201
        21        20        19        24     9      180.000000       10.472585         2    ;  uncertainty k = 0.339925
        21        20        19        24     9        0.000000        0.145417         3    ;  uncertainty k = 0.232261
        21        20        19        24     9      180.000000        1.265795         4    ;  uncertainty k = 0.352177
        21        22        23        24     9        0.000000       -0.107986         1    ;  uncertainty k = 0.156059
        21        22        23        24     9      180.000000       13.636446         2    ;  uncertainty k = 0.287500
        21        22        23        24     9        0.000000       -0.915810         3    ;  uncertainty k = 0.432498
        21        22        23        24     9      180.000000        0.818106         4    ;  uncertainty k = 0.205174
        21        22        23        50     9        0.000000        0.010116         1    ;  uncertainty k = 0.180077
        21        22        23        50     9      180.000000        7.831945         2    ;  uncertainty k = 0.347685
        21        22        23        50     9        0.000000        1.307868         3    ;  uncertainty k = 0.283320
        21        22        23        50     9      180.000000        1.839746         4    ;  uncertainty k = 0.197867
        22        21        20        47     9        0.000000        0.013762         1    ;  uncertainty k = 0.181569
        22        21        20        47     9      180.000000        7.868641         2    ;  uncertainty k = 0.273169
        22        21        20        47     9        0.000000        1.200534         3    ;  uncertainty k = 0.293560
        22        21        20        47     9      180.000000        1.743151         4    ;  uncertainty k = 0.129385
        22        23        24        25     9        0.000000        0.391440         1    ;  uncertainty k = 0.394139
        22        23        24        25     9      180.000000       11.284282         2    ;  uncertainty k = 0.313593
        22        23        24        25     9        0.000000        1.023224         3    ;  uncertainty k = 0.199972
        22        23        24        25     9      180.000000        1.631084         4    ;  uncertainty k = 0.162363
        23        22        21        48     9        0.000000        0.001600         1    ;  uncertainty k = 0.294658
        23        22        21        48     9      180.000000        7.634332         2    ;  uncertainty k = 0.350926
        23        22        21        48     9        0.000000        1.440317         3    ;  uncertainty k = 0.252693
        23        22        21        48     9      180.000000        1.744464         4    ;  uncertainty k = 0.123283
        23        24        25        26     9        0.000000        2.228556         1    ;  uncertainty k = 0.676122
        23        24        25        26     9      180.000000        4.059924         2    ;  uncertainty k = 0.290826
        23        24        25        26     9        0.000000        0.355277         3    ;  uncertainty k = 0.193618
        23        24        25        26     9      180.000000        0.061553         4    ;  uncertainty k = 0.111955
        23        24        25        29     9        0.000000        2.228556         1    ;  uncertainty k = 0.676122
        23        24        25        29     9      180.000000        4.059924         2    ;  uncertainty k = 0.290826
        23        24        25        29     9        0.000000        0.355277         3    ;  uncertainty k = 0.193618
        23        24        25        29     9      180.000000        0.061553         4    ;  uncertainty k = 0.111955
        24        19        20        47     9        0.000000        0.042022         1    ;  uncertainty k = 0.338662
        24        19        20        47     9      180.000000        7.723771         2    ;  uncertainty k = 0.458223
        24        19        20        47     9        0.000000        1.186096         3    ;  uncertainty k = 0.087701
        24        19        20        47     9      180.000000        1.674905         4    ;  uncertainty k = 0.187640
        24        23        22        49     9        0.000000       -0.014461         1    ;  uncertainty k = 0.258048
        24        23        22        49     9      180.000000        8.086169         2    ;  uncertainty k = 0.449740
        24        23        22        49     9        0.000000        1.238038         3    ;  uncertainty k = 0.236155
        24        23        22        49     9      180.000000        1.717144         4    ;  uncertainty k = 0.141303
        24        25        26        27     9        0.000000        0.874200         1    ;  uncertainty k = 2.534172
        24        25        26        27     9      180.000000       14.315521         2    ;  uncertainty k = 0.389512
        24        25        26        27     9        0.000000        1.354039         3    ;  uncertainty k = 0.494510
        24        25        26        27     9      180.000000        0.071401         4    ;  uncertainty k = 0.219115
        24        25        29        28     9        0.000000        0.874200         1    ;  uncertainty k = 2.534172
        24        25        29        28     9      180.000000       14.315521         2    ;  uncertainty k = 0.389512
        24        25        29        28     9        0.000000        1.354039         3    ;  uncertainty k = 0.494510
        24        25        29        28     9      180.000000        0.071401         4    ;  uncertainty k = 0.219115
        25        24        23        50     9        0.000000        0.114587         1    ;  uncertainty k = 0.439142
        25        24        23        50     9      180.000000        8.427554         2    ;  uncertainty k = 0.259058
        25        24        23        50     9        0.000000        0.830991         3    ;  uncertainty k = 0.153869
        25        24        23        50     9      180.000000        1.362896         4    ;  uncertainty k = 0.164396
        25        26        27        28     9        0.000000        0.018497         1    ;  uncertainty k = 0.518320
        25        26        27        28     9      180.000000       24.366317         2    ;  uncertainty k = 0.356973
        25        26        27        28     9        0.000000       -9.743427         3    ;  uncertainty k = 1.822103
        25        26        27        28     9      180.000000        2.415356         4    ;  uncertainty k = 0.669504
        25        26        27        51     9        0.000000        0.242617         1    ;  uncertainty k = 0.727374
        25        26        27        51     9      180.000000       22.022102         2    ;  uncertainty k = 0.478026
        25        26        27        51     9        0.000000        1.424783         3    ;  uncertainty k = 0.389502
        25        26        27        51     9      180.000000        1.215300         4    ;  uncertainty k = 0.593752
        25        29        28        27     9        0.000000        0.018497         1    ;  uncertainty k = 0.518320
        25        29        28        27     9      180.000000       24.366317         2    ;  uncertainty k = 0.356973
        25        29        28        27     9        0.000000       -9.743427         3    ;  uncertainty k = 1.822103
        25        29        28        27     9      180.000000        2.415356         4    ;  uncertainty k = 0.669504
        25        29        28        52     9        0.000000        0.242617         1    ;  uncertainty k = 0.727374
        25        29        28        52     9      180.000000       22.022102         2    ;  uncertainty k = 0.478026
        25        29        28        52     9        0.000000        1.424783         3    ;  uncertainty k = 0.389502
        25        29        28        52     9      180.000000        1.215300         4    ;  uncertainty k = 0.593752
        26        25        29        28     9        0.000000       -0.812639         1    ;  uncertainty k = 0.740782
        26        25        29        28     9      180.000000       22.007266         2    ;  uncertainty k = 0.259740
        26        25        29        28     9        0.000000       -8.239640         3    ;  uncertainty k = 1.249764
        26        25        29        28     9      180.000000        1.306014         4    ;  uncertainty k = 0.609846
        26        27        28        29     9        0.000000       -0.480158         1    ;  uncertainty k = 0.926462
        26        27        28        29     9      180.000000       16.735216         2    ;  uncertainty k = 1.309662
        26        27        28        29     9        0.000000      -12.155219         3    ;  uncertainty k = 1.939945
        26        27        28        29     9      180.000000        1.991293         4    ;  uncertainty k = 0.750423
        26        27        28        52     9        0.000000        0.154897         1    ;  uncertainty k = 0.970262
        26        27        28        52     9      180.000000       11.842300         2    ;  uncertainty k = 0.614370
        26        27        28        52     9        0.000000        0.922189         3    ;  uncertainty k = 0.757887
        26        27        28        52     9      180.000000        0.630945         4    ;  uncertainty k = 0.172002
        27        26        25        29     9        0.000000       -0.812639         1    ;  uncertainty k = 0.740782
        27        26        25        29     9      180.000000       22.007266         2    ;  uncertainty k = 0.259740
        27        26        25        29     9        0.000000       -8.239640         3    ;  uncertainty k = 1.249764
        27        26        25        29     9      180.000000        1.306014         4    ;  uncertainty k = 0.609846
        29        28        27        51     9        0.000000        0.154897         1    ;  uncertainty k = 0.970262
        29        28        27        51     9      180.000000       11.842300         2    ;  uncertainty k = 0.614370
        29        28        27        51     9        0.000000        0.922189         3    ;  uncertainty k = 0.757887
        29        28        27        51     9      180.000000        0.630945         4    ;  uncertainty k = 0.172002
        37        10        11        39     9        0.000000        0.359872         1    ;  uncertainty k = 0.316166
        37        10        11        39     9      180.000000       -0.360044         2    ;  uncertainty k = 0.197279
        37        10        11        39     9        0.000000        0.364903         3    ;  uncertainty k = 0.128583
        37        10        11        39     9      180.000000       -0.036803         4    ;  uncertainty k = 0.081429
        38        10        11        39     9        0.000000        0.359872         1    ;  uncertainty k = 0.316166
        38        10        11        39     9      180.000000       -0.360044         2    ;  uncertainty k = 0.197279
        38        10        11        39     9        0.000000        0.364903         3    ;  uncertainty k = 0.128583
        38        10        11        39     9      180.000000       -0.036803         4    ;  uncertainty k = 0.081429
        39        11        12        40     9        0.000000        0.423998         1    ;  uncertainty k = 0.297943
        39        11        12        40     9      180.000000       -0.322771         2    ;  uncertainty k = 0.253711
        39        11        12        40     9        0.000000        0.343158         3    ;  uncertainty k = 0.128710
        39        11        12        40     9      180.000000       -0.041305         4    ;  uncertainty k = 0.061986
        39        11        12        41     9        0.000000        0.423998         1    ;  uncertainty k = 0.297943
        39        11        12        41     9      180.000000       -0.322771         2    ;  uncertainty k = 0.253711
        39        11        12        41     9        0.000000        0.343158         3    ;  uncertainty k = 0.128710
        39        11        12        41     9      180.000000       -0.041305         4    ;  uncertainty k = 0.061986
        39        11        15        44     9        0.000000        3.534566         1    ;  uncertainty k = 1.183407
        39        11        15        44     9      180.000000       -0.219654         2    ;  uncertainty k = 0.641097
        39        11        15        44     9        0.000000        0.578188         3    ;  uncertainty k = 0.579178
        39        11        15        44     9      180.000000        0.212498         4    ;  uncertainty k = 0.291708
        42        14        15        44     9        0.000000        0.424000         1    ;  uncertainty k = 0.297943
        42        14        15        44     9      180.000000       -0.322771         2    ;  uncertainty k = 0.253710
        42        14        15        44     9        0.000000        0.343158         3    ;  uncertainty k = 0.128710
        42        14        15        44     9      180.000000       -0.041305         4    ;  uncertainty k = 0.061986
        43        14        15        44     9        0.000000        0.424000         1    ;  uncertainty k = 0.297943
        43        14        15        44     9      180.000000       -0.322771         2    ;  uncertainty k = 0.253710
        43        14        15        44     9        0.000000        0.343158         3    ;  uncertainty k = 0.128710
        43        14        15        44     9      180.000000       -0.041305         4    ;  uncertainty k = 0.061986
        44        15        16        45     9        0.000000        0.359873         1    ;  uncertainty k = 0.316165
        44        15        16        45     9      180.000000       -0.360044         2    ;  uncertainty k = 0.197281
        44        15        16        45     9        0.000000        0.364903         3    ;  uncertainty k = 0.128582
        44        15        16        45     9      180.000000       -0.036803         4    ;  uncertainty k = 0.081429
        44        15        16        46     9        0.000000        0.359873         1    ;  uncertainty k = 0.316165
        44        15        16        46     9      180.000000       -0.360044         2    ;  uncertainty k = 0.197281
        44        15        16        46     9        0.000000        0.364903         3    ;  uncertainty k = 0.128582
        44        15        16        46     9      180.000000       -0.036803         4    ;  uncertainty k = 0.081429
        47        20        21        48     9        0.000000       -0.258962         1    ;  uncertainty k = 0.212867
        47        20        21        48     9      180.000000        7.868316         2    ;  uncertainty k = 0.336763
        47        20        21        48     9        0.000000       -0.353044         3    ;  uncertainty k = 0.229031
        47        20        21        48     9      180.000000        0.171922         4    ;  uncertainty k = 0.154390
        48        21        22        49     9        0.000000       -0.075304         1    ;  uncertainty k = 0.031963
        48        21        22        49     9      180.000000        7.754723         2    ;  uncertainty k = 0.508615
        48        21        22        49     9        0.000000       -0.387324         3    ;  uncertainty k = 0.331075
        48        21        22        49     9      180.000000        0.019971         4    ;  uncertainty k = 0.187904
        49        22        23        50     9        0.000000        0.007477         1    ;  uncertainty k = 0.110239
        49        22        23        50     9      180.000000        8.016819         2    ;  uncertainty k = 0.365630
        49        22        23        50     9        0.000000       -0.482686         3    ;  uncertainty k = 0.330233
        49        22        23        50     9      180.000000        0.176531         4    ;  uncertainty k = 0.194610
        51        27        28        52     9        0.000000       -0.942648         1    ;  uncertainty k = 1.117582
        51        27        28        52     9      180.000000        4.272735         2    ;  uncertainty k = 0.760818
        51        27        28        52     9        0.000000        1.314863         3    ;  uncertainty k = 0.353594
        51        27        28        52     9      180.000000        0.150448         4    ;  uncertainty k = 0.159865

[ dihedrals ] ; impropers
;       ai        aj        ak        al funct           phase               k        pn
         2         1         3         8     4      180.000000       31.911121         2    ;  uncertainty k = 0.074029
         2         3         8         1     4      180.000000       31.911121         2    ;  uncertainty k = 0.074029
         2         8         1         3     4      180.000000       31.911121         2    ;  uncertainty k = 0.074029
         3         2         4        33     4      180.000000        1.149575         2    ;  uncertainty k = 0.472328
         3         4        33         2     4      180.000000        1.149575         2    ;  uncertainty k = 0.472328
         3        33         2         4     4      180.000000        1.149575         2    ;  uncertainty k = 0.472328
         4         3         5         6     4      180.000000       31.911121         2    ;  uncertainty k = 0.074029
         4         5         6         3     4      180.000000       31.911121         2    ;  uncertainty k = 0.074029
         4         6         3         5     4      180.000000       31.911121         2    ;  uncertainty k = 0.074029
         7         6         8         9     4      180.000000       42.641368         2    ;  uncertainty k = 0.061085
         7         8         9         6     4      180.000000       42.641368         2    ;  uncertainty k = 0.061085
         7         9         6         8     4      180.000000       42.641368         2    ;  uncertainty k = 0.061085
         9         7        10        16     4      180.000000        0.056062         2    ;  uncertainty k = 0.081767
         9        10        16         7     4      180.000000        0.056062         2    ;  uncertainty k = 0.081767
         9        16         7        10     4      180.000000        0.056062         2    ;  uncertainty k = 0.081767
        17        13        18        19     4      180.000000       51.207437         2    ;  uncertainty k = 0.072564
        17        18        19        13     4      180.000000       51.207437         2    ;  uncertainty k = 0.072564
        17        19        13        18     4      180.000000       51.207437         2    ;  uncertainty k = 0.072564
        19        17        20        24     4      180.000000       10.943339         2    ;  uncertainty k = 0.213369
        19        20        24        17     4      180.000000       10.943339         2    ;  uncertainty k = 0.213369
        19        24        17        20     4      180.000000       10.943339         2    ;  uncertainty k = 0.213369
        20        19        21        47     4      180.000000        4.073275         2    ;  uncertainty k = 0.095499
        20        21        47        19     4      180.000000        4.073275         2    ;  uncertainty k = 0.095499
        20        47        19        21     4      180.000000        4.073275         2    ;  uncertainty k = 0.095499
        21        20        22        48     4      180.000000        3.745216         2    ;  uncertainty k = 0.100195
        21        22        48        20     4      180.000000        3.745216         2    ;  uncertainty k = 0.100195
        21        48        20        22     4      180.000000        3.745216         2    ;  uncertainty k = 0.100195
        22        21        23        49     4      180.000000        4.439630         2    ;  uncertainty k = 0.108235
        22        23        49        21     4      180.000000        4.439630         2    ;  uncertainty k = 0.108235
        22        49        21        23     4      180.000000        4.439630         2    ;  uncertainty k = 0.108235
        23        22        24        50     4      180.000000        3.318229         2    ;  uncertainty k = 0.143832
        23        24        50        22     4      180.000000        3.318229         2    ;  uncertainty k = 0.143832
        23        50        22        24     4      180.000000        3.318229         2    ;  uncertainty k = 0.143832
        24        19        23        25     4      180.000000       11.884682         2    ;  uncertainty k = 0.159177
        24        23        25        19     4      180.000000       11.884682         2    ;  uncertainty k = 0.159177
        24        25        19        23     4      180.000000       11.884682         2    ;  uncertainty k = 0.159177
        27        26        28        51     4      180.000000        0.414726         2    ;  uncertainty k = 0.408832
        27        28        51        26     4      180.000000        0.414726         2    ;  uncertainty k = 0.408832
        27        51        26        28     4      180.000000        0.414726         2    ;  uncertainty k = 0.408832
        28        27        29        52     4      180.000000        0.414726         2    ;  uncertainty k = 0.408832
        28        29        52        27     4      180.000000        0.414726         2    ;  uncertainty k = 0.408832
        28        52        27        29     4      180.000000        0.414726         2    ;  uncertainty k = 0.408832

[ pairs ]
;       ai        aj funct
         1         4     1
         1         7     1
         1        33     1
         2         5     1
         2         6     1
         2         9     1
         3         7     1
         3        30     1
         3        31     1
         3        32     1
         3        34     1
         3        35     1
         3        36     1
         4         8     1
         4         9     1
         5         7     1
         5        33     1
         6        10     1
         6        16     1
         6        33     1
         6        34     1
         6        35     1
         6        36     1
         7        11     1
         7        15     1
         7        37     1
         7        38     1
         7        45     1
         7        46     1
         8        10     1
         8        16     1
         8        30     1
         8        31     1
         8        32     1
         8        33     1
         9        12     1
         9        14     1
         9        39     1
         9        44     1
        10        13     1
        10        14     1
        10        40     1
        10        41     1
        10        44     1
        10        45     1
        10        46     1
        11        17     1
        11        42     1
        11        43     1
        11        45     1
        11        46     1
        12        16     1
        12        18     1
        12        19     1
        12        37     1
        12        38     1
        12        42     1
        12        43     1
        12        44     1
        13        16     1
        13        20     1
        13        24     1
        13        39     1
        13        44     1
        14        18     1
        14        19     1
        14        39     1
        14        40     1
        14        41     1
        14        45     1
        14        46     1
        15        17     1
        15        37     1
        15        38     1
        15        40     1
        15        41     1
        16        37     1
        16        38     1
        16        39     1
        16        42     1
        16        43     1
        17        21     1
        17        23     1
        17        25     1
        17        40     1
        17        41     1
        17        42     1
        17        43     1
        17        47     1
        18        20     1
        18        24     1
        19        22     1
        19        26     1
        19        29     1
        19        48     1
        19        50     1
        20        23     1
        20        25     1
        20        49     1
        21        24     1
        21        50     1
        22        25     1
        22        47     1
        23        26     1
        23        29     1
        23        48     1
        24        27     1
        24        28     1
        24        47     1
        24        49     1
        25        50     1
        25        51     1
        25        52     1
        26        52     1
        29        51     1
        37        39     1
        38        39     1
        39        40     1
        39        41     1
        39        44     1
        42        44     1
        43        44     1
        44        45     1
        44        46     1
        47        48     1
        48        49     1
        49        50     1
        51        52     1
