; ITP file created by ByteFF-joint-25, 2025-07-14 11:28:44.232486

[ atomtypes ]
;name           bonded.type        at.num        mass        charge   ptype           sigma         epsilon
 c0bf                                   6      0.0000       0.00000       A     3.39775e-01     4.50880e-01    ;  uncertainty sigma = 0.000003, epsilon = 0.000591
 c1bf                                   6      0.0000       0.00000       A     3.31526e-01     4.13099e-01    ;  uncertainty sigma = 0.000008, epsilon = 0.001031
 c2bf                                   6      0.0000       0.00000       A     3.31526e-01     4.13357e-01    ;  uncertainty sigma = 0.000007, epsilon = 0.000666
 n3bf                                   7      0.0000       0.00000       A     3.38411e-01     3.93647e-01    ;  uncertainty sigma = 0.000014, epsilon = 0.001045
 c4bf                                   6      0.0000       0.00000       A     3.31547e-01     4.13431e-01    ;  uncertainty sigma = 0.000019, epsilon = 0.000615
 n5bf                                   7      0.0000       0.00000       A     3.38399e-01     3.93862e-01    ;  uncertainty sigma = 0.000009, epsilon = 0.001074
 c6bf                                   6      0.0000       0.00000       A     3.31502e-01     4.13100e-01    ;  uncertainty sigma = 0.000010, epsilon = 0.000832
 c7bf                                   6      0.0000       0.00000       A     3.39766e-01     4.50984e-01    ;  uncertainty sigma = 0.000004, epsilon = 0.000579
 n8bf                                   7      0.0000       0.00000       A     3.18954e-01     8.98779e-01    ;  uncertainty sigma = 0.000053, epsilon = 0.003743
 c9bf                                   6      0.0000       0.00000       A     3.39774e-01     4.50953e-01    ;  uncertainty sigma = 0.000012, epsilon = 0.001229
 c10bf                                  6      0.0000       0.00000       A     3.39776e-01     4.51373e-01    ;  uncertainty sigma = 0.000009, epsilon = 0.000969
 c11bf                                  6      0.0000       0.00000       A     3.39784e-01     4.51219e-01    ;  uncertainty sigma = 0.000006, epsilon = 0.000696
 n12bf                                  7      0.0000       0.00000       A     3.18086e-01     6.84039e-01    ;  uncertainty sigma = 0.000014, epsilon = 0.001467
 c13bf                                  6      0.0000       0.00000       A     3.39784e-01     4.51219e-01    ;  uncertainty sigma = 0.000006, epsilon = 0.000696
 c14bf                                  6      0.0000       0.00000       A     3.39776e-01     4.51373e-01    ;  uncertainty sigma = 0.000009, epsilon = 0.000969
 c15bf                                  6      0.0000       0.00000       A     3.39774e-01     4.50953e-01    ;  uncertainty sigma = 0.000012, epsilon = 0.001229
 c16bf                                  6      0.0000       0.00000       A     3.31486e-01     4.13134e-01    ;  uncertainty sigma = 0.000026, epsilon = 0.002146
 o17bf                                  8      0.0000       0.00000       A     3.04851e-01     6.12019e-01    ;  uncertainty sigma = 0.000026, epsilon = 0.001020
 c18bf                                  6      0.0000       0.00000       A     3.31488e-01     4.12415e-01    ;  uncertainty sigma = 0.000034, epsilon = 0.001171
 c19bf                                  6      0.0000       0.00000       A     3.31513e-01     4.12834e-01    ;  uncertainty sigma = 0.000016, epsilon = 0.001291
 f20bf                                  9      0.0000       0.00000       A     3.03451e-01     3.47872e-01    ;  uncertainty sigma = 0.000029, epsilon = 0.000470
 c21bf                                  6      0.0000       0.00000       A     3.31522e-01     4.13335e-01    ;  uncertainty sigma = 0.000005, epsilon = 0.000662
 c22bf                                  6      0.0000       0.00000       A     3.31521e-01     4.13421e-01    ;  uncertainty sigma = 0.000006, epsilon = 0.000781
 c23bf                                  6      0.0000       0.00000       A     3.31510e-01     4.13240e-01    ;  uncertainty sigma = 0.000014, epsilon = 0.000923
 c24bf                                  6      0.0000       0.00000       A     3.31553e-01     4.13601e-01    ;  uncertainty sigma = 0.000013, epsilon = 0.001582
 n25bf                                  7      0.0000       0.00000       A     3.20569e-01     8.54049e-01    ;  uncertainty sigma = 0.000030, epsilon = 0.002792
 n26bf                                  7      0.0000       0.00000       A     3.38413e-01     3.93694e-01    ;  uncertainty sigma = 0.000010, epsilon = 0.000693
 c27bf                                  6      0.0000       0.00000       A     3.31537e-01     4.13587e-01    ;  uncertainty sigma = 0.000007, epsilon = 0.000835
 c28bf                                  6      0.0000       0.00000       A     3.31537e-01     4.13587e-01    ;  uncertainty sigma = 0.000007, epsilon = 0.000835
 n29bf                                  7      0.0000       0.00000       A     3.38413e-01     3.93694e-01    ;  uncertainty sigma = 0.000010, epsilon = 0.000693
 h30bf                                  1      0.0000       0.00000       A     2.60045e-01     8.67591e-02    ;  uncertainty sigma = 0.000006, epsilon = 0.000371
 h31bf                                  1      0.0000       0.00000       A     2.60045e-01     8.67591e-02    ;  uncertainty sigma = 0.000006, epsilon = 0.000371
 h32bf                                  1      0.0000       0.00000       A     2.60045e-01     8.67591e-02    ;  uncertainty sigma = 0.000006, epsilon = 0.000371
 h33bf                                  1      0.0000       0.00000       A     2.53652e-01     6.70516e-02    ;  uncertainty sigma = 0.000021, epsilon = 0.000524
 h34bf                                  1      0.0000       0.00000       A     2.60032e-01     8.66617e-02    ;  uncertainty sigma = 0.000008, epsilon = 0.000520
 h35bf                                  1      0.0000       0.00000       A     2.60032e-01     8.66617e-02    ;  uncertainty sigma = 0.000008, epsilon = 0.000520
 h36bf                                  1      0.0000       0.00000       A     2.60032e-01     8.66617e-02    ;  uncertainty sigma = 0.000008, epsilon = 0.000520
 h37bf                                  1      0.0000       0.00000       A     2.42199e-01     8.66324e-02    ;  uncertainty sigma = 0.000024, epsilon = 0.001250
 h38bf                                  1      0.0000       0.00000       A     2.42199e-01     8.66324e-02    ;  uncertainty sigma = 0.000024, epsilon = 0.001250
 h39bf                                  1      0.0000       0.00000       A     2.59994e-01     8.68892e-02    ;  uncertainty sigma = 0.000026, epsilon = 0.000553
 h40bf                                  1      0.0000       0.00000       A     2.42194e-01     8.66543e-02    ;  uncertainty sigma = 0.000021, epsilon = 0.000863
 h41bf                                  1      0.0000       0.00000       A     2.42194e-01     8.66543e-02    ;  uncertainty sigma = 0.000021, epsilon = 0.000863
 h42bf                                  1      0.0000       0.00000       A     2.42194e-01     8.66545e-02    ;  uncertainty sigma = 0.000021, epsilon = 0.000863
 h43bf                                  1      0.0000       0.00000       A     2.42194e-01     8.66545e-02    ;  uncertainty sigma = 0.000021, epsilon = 0.000863
 h44bf                                  1      0.0000       0.00000       A     2.59994e-01     8.68892e-02    ;  uncertainty sigma = 0.000026, epsilon = 0.000553
 h45bf                                  1      0.0000       0.00000       A     2.42199e-01     8.66324e-02    ;  uncertainty sigma = 0.000024, epsilon = 0.001250
 h46bf                                  1      0.0000       0.00000       A     2.42199e-01     8.66324e-02    ;  uncertainty sigma = 0.000024, epsilon = 0.001250
 h47bf                                  1      0.0000       0.00000       A     2.62565e-01     6.70682e-02    ;  uncertainty sigma = 0.000010, epsilon = 0.000430
 h48bf                                  1      0.0000       0.00000       A     2.62565e-01     6.69658e-02    ;  uncertainty sigma = 0.000011, epsilon = 0.000532
 h49bf                                  1      0.0000       0.00000       A     2.62555e-01     6.71502e-02    ;  uncertainty sigma = 0.000013, epsilon = 0.000465
 h50bf                                  1      0.0000       0.00000       A     2.53604e-01     6.70805e-02    ;  uncertainty sigma = 0.000028, epsilon = 0.000600
 h51bf                                  1      0.0000       0.00000       A     2.53604e-01     6.70805e-02    ;  uncertainty sigma = 0.000028, epsilon = 0.000600

[ moleculetype ]
;name             nrexcl
 MOL                   3

[ atoms ]
;       nr            type      resi   res      atom      cgnr      charge          mass ; qtot
         1            c0bf         1   UNL        c0         1    -0.02900       12.0110 ; qtot   -0.029
         2            c1bf         1   UNL        c1         2    -0.35841       12.0110 ; qtot   -0.387
         3            c2bf         1   UNL        c2         3     0.46709       12.0110 ; qtot    0.080
         4            n3bf         1   UNL        n3         4    -0.76417       14.0070 ; qtot   -0.684
         5            c4bf         1   UNL        c4         5     0.89610       12.0110 ; qtot    0.212
         6            n5bf         1   UNL        n5         6    -0.77014       14.0070 ; qtot   -0.559
         7            c6bf         1   UNL        c6         7     0.48789       12.0110 ; qtot   -0.071
         8            c7bf         1   UNL        c7         8    -0.15385       12.0110 ; qtot   -0.224
         9            n8bf         1   UNL        n8         9    -0.78942       14.0070 ; qtot   -1.014
        10            c9bf         1   UNL        c9        10     0.23394       12.0110 ; qtot   -0.780
        11           c10bf         1   UNL       c10        11    -0.09743       12.0110 ; qtot   -0.877
        12           c11bf         1   UNL       c11        12     0.11057       12.0110 ; qtot   -0.767
        13           n12bf         1   UNL       n12        13    -0.47239       14.0070 ; qtot   -1.239
        14           c13bf         1   UNL       c13        14     0.11057       12.0110 ; qtot   -1.129
        15           c14bf         1   UNL       c14        15    -0.09743       12.0110 ; qtot   -1.226
        16           c15bf         1   UNL       c15        16     0.23394       12.0110 ; qtot   -0.992
        17           c16bf         1   UNL       c16        17     0.70764       12.0110 ; qtot   -0.284
        18           o17bf         1   UNL       o17        18    -0.58293       15.9990 ; qtot   -0.867
        19           c18bf         1   UNL       c18        19    -0.15596       12.0110 ; qtot   -1.023
        20           c19bf         1   UNL       c19        20     0.16292       12.0110 ; qtot   -0.860
        21           f20bf         1   UNL       f20        21    -0.13494       18.9980 ; qtot   -0.995
        22           c21bf         1   UNL       c21        22    -0.15817       12.0110 ; qtot   -1.154
        23           c22bf         1   UNL       c22        23    -0.08197       12.0110 ; qtot   -1.236
        24           c23bf         1   UNL       c23        24    -0.13048       12.0110 ; qtot   -1.366
        25           c24bf         1   UNL       c24        25     0.07222       12.0110 ; qtot   -1.294
        26           n25bf         1   UNL       n25        26     0.30201       14.0070 ; qtot   -0.992
        27           n26bf         1   UNL       n26        27    -0.47243       14.0070 ; qtot   -1.464
        28           c27bf         1   UNL       c27        28     0.20275       12.0110 ; qtot   -1.261
        29           c28bf         1   UNL       c28        29     0.20275       12.0110 ; qtot   -1.059
        30           n29bf         1   UNL       n29        30    -0.47243       14.0070 ; qtot   -1.531
        31           h30bf         1   UNL       h30        31     0.04709        1.0080 ; qtot   -1.484
        32           h31bf         1   UNL       h31        32     0.04709        1.0080 ; qtot   -1.437
        33           h32bf         1   UNL       h32        33     0.04709        1.0080 ; qtot   -1.390
        34           h33bf         1   UNL       h33        34     0.01913        1.0080 ; qtot   -1.371
        35           h34bf         1   UNL       h34        35     0.05784        1.0080 ; qtot   -1.313
        36           h35bf         1   UNL       h35        36     0.05784        1.0080 ; qtot   -1.255
        37           h36bf         1   UNL       h36        37     0.05784        1.0080 ; qtot   -1.197
        38           h37bf         1   UNL       h37        38     0.05891        1.0080 ; qtot   -1.138
        39           h38bf         1   UNL       h38        39     0.05891        1.0080 ; qtot   -1.079
        40           h39bf         1   UNL       h39        40     0.07237        1.0080 ; qtot   -1.007
        41           h40bf         1   UNL       h40        41     0.05981        1.0080 ; qtot   -0.947
        42           h41bf         1   UNL       h41        42     0.05981        1.0080 ; qtot   -0.887
        43           h42bf         1   UNL       h42        43     0.05981        1.0080 ; qtot   -0.828
        44           h43bf         1   UNL       h43        44     0.05981        1.0080 ; qtot   -0.768
        45           h44bf         1   UNL       h44        45     0.07237        1.0080 ; qtot   -0.695
        46           h45bf         1   UNL       h45        46     0.05891        1.0080 ; qtot   -0.637
        47           h46bf         1   UNL       h46        47     0.05891        1.0080 ; qtot   -0.578
        48           h47bf         1   UNL       h47        48     0.15846        1.0080 ; qtot   -0.419
        49           h48bf         1   UNL       h48        49     0.14574        1.0080 ; qtot   -0.273
        50           h49bf         1   UNL       h49        50     0.16350        1.0080 ; qtot   -0.110
        51           h50bf         1   UNL       h50        51     0.05496        1.0080 ; qtot   -0.055
        52           h51bf         1   UNL       h51        52     0.05496        1.0080 ; qtot    0.000

[ bonds ]
;       ai        aj funct               r               k
         1         2     1        0.150713   245947.032129    ;  uncertainty r = 0.000057, k = 3.733980
         1        31     1        0.109489   308118.963574    ;  uncertainty r = 0.000025, k = 1.008927
         1        32     1        0.109489   308118.963574    ;  uncertainty r = 0.000025, k = 1.008927
         1        33     1        0.109489   308118.963574    ;  uncertainty r = 0.000025, k = 1.008927
         2         3     1        0.139863   397549.716309    ;  uncertainty r = 0.000072, k = 8.180241
         2         7     1        0.141127   358956.759766    ;  uncertainty r = 0.000022, k = 12.693061
         3         4     1        0.133931   443212.264062    ;  uncertainty r = 0.000095, k = 12.156046
         3        34     1        0.109017   329069.940088    ;  uncertainty r = 0.000023, k = 3.177254
         4         5     1        0.135228   487160.761035    ;  uncertainty r = 0.000048, k = 18.470953
         5         6     1        0.135240   493390.436719    ;  uncertainty r = 0.000085, k = 15.992169
         5         9     1        0.136538   318599.469873    ;  uncertainty r = 0.000081, k = 22.847895
         6         7     1        0.133990   443788.994141    ;  uncertainty r = 0.000094, k = 10.039245
         7         8     1        0.150673   243059.219189    ;  uncertainty r = 0.000033, k = 3.144394
         8        35     1        0.109434   310669.303613    ;  uncertainty r = 0.000013, k = 1.152730
         8        36     1        0.109434   310669.303613    ;  uncertainty r = 0.000013, k = 1.152730
         8        37     1        0.109434   310669.303613    ;  uncertainty r = 0.000013, k = 1.152730
         9        10     1        0.146397   223645.295752    ;  uncertainty r = 0.000055, k = 14.059742
         9        16     1        0.146397   223645.295752    ;  uncertainty r = 0.000055, k = 14.059734
        10        11     1        0.153378   218045.467334    ;  uncertainty r = 0.000067, k = 7.088220
        10        38     1        0.109551   306518.450781    ;  uncertainty r = 0.000069, k = 2.534282
        10        39     1        0.109551   306518.450781    ;  uncertainty r = 0.000069, k = 2.534282
        11        12     1        0.153480   216617.049121    ;  uncertainty r = 0.000023, k = 7.412723
        11        15     1        0.154451   200722.496875    ;  uncertainty r = 0.000080, k = 20.796785
        11        40     1        0.109350   305021.261133    ;  uncertainty r = 0.000029, k = 3.829702
        12        13     1        0.146976   241154.380664    ;  uncertainty r = 0.000047, k = 15.575172
        12        41     1        0.109439   307434.875488    ;  uncertainty r = 0.000026, k = 1.171544
        12        42     1        0.109439   307434.875488    ;  uncertainty r = 0.000026, k = 1.171544
        13        14     1        0.146976   241154.380664    ;  uncertainty r = 0.000047, k = 15.575144
        13        17     1        0.135088   335723.021045    ;  uncertainty r = 0.000166, k = 15.024462
        14        15     1        0.153480   216617.049121    ;  uncertainty r = 0.000023, k = 7.412681
        14        43     1        0.109439   307434.875488    ;  uncertainty r = 0.000026, k = 1.171521
        14        44     1        0.109439   307434.875488    ;  uncertainty r = 0.000026, k = 1.171521
        15        16     1        0.153378   218045.441797    ;  uncertainty r = 0.000067, k = 7.088228
        15        45     1        0.109350   305021.261133    ;  uncertainty r = 0.000029, k = 3.829660
        16        46     1        0.109551   306518.450781    ;  uncertainty r = 0.000069, k = 2.534287
        16        47     1        0.109551   306518.450781    ;  uncertainty r = 0.000069, k = 2.534287
        17        18     1        0.123492   739384.865723    ;  uncertainty r = 0.000039, k = 10.151716
        17        19     1        0.151093   272101.603271    ;  uncertainty r = 0.000079, k = 31.154101
        19        20     1        0.139399   331888.649609    ;  uncertainty r = 0.000087, k = 16.801357
        19        25     1        0.139529   322378.221484    ;  uncertainty r = 0.000112, k = 6.618765
        20        21     1        0.135284   339697.693359    ;  uncertainty r = 0.000139, k = 6.883764
        20        22     1        0.138876   355374.082080    ;  uncertainty r = 0.000029, k = 4.848304
        22        23     1        0.139230   385818.044873    ;  uncertainty r = 0.000031, k = 3.156029
        22        48     1        0.108754   335743.833789    ;  uncertainty r = 0.000014, k = 1.461762
        23        24     1        0.139117   371572.781299    ;  uncertainty r = 0.000042, k = 2.923689
        23        49     1        0.108705   332118.687891    ;  uncertainty r = 0.000011, k = 1.593644
        24        25     1        0.139176   333973.831201    ;  uncertainty r = 0.000089, k = 2.958672
        24        50     1        0.108623   333131.336426    ;  uncertainty r = 0.000019, k = 1.837628
        25        26     1        0.140554   317671.476855    ;  uncertainty r = 0.000102, k = 8.472881
        26        27     1        0.134456   229486.015723    ;  uncertainty r = 0.000080, k = 10.859863
        26        30     1        0.134456   229486.015723    ;  uncertainty r = 0.000080, k = 10.859863
        27        28     1        0.132965   463550.937305    ;  uncertainty r = 0.000052, k = 7.730519
        28        29     1        0.141781   249584.001709    ;  uncertainty r = 0.000103, k = 15.332670
        28        51     1        0.108418   339910.136572    ;  uncertainty r = 0.000037, k = 1.124302
        29        30     1        0.132965   463550.937305    ;  uncertainty r = 0.000052, k = 7.730519
        29        52     1        0.108418   339910.136572    ;  uncertainty r = 0.000037, k = 1.124302

[ angles ]
;       ai        aj        ak funct           theta             cth
         1         2         3     1      121.619835      397.755226    ;  uncertainty theta = 0.005101, k = 0.128259
         1         2         7     1      120.967102      389.755439    ;  uncertainty theta = 0.005484, k = 0.171829
         2         1        31     1      109.887009      394.382668    ;  uncertainty theta = 0.000656, k = 0.036392
         2         1        32     1      109.887009      394.382668    ;  uncertainty theta = 0.000656, k = 0.036392
         2         1        33     1      109.887009      394.382668    ;  uncertainty theta = 0.000656, k = 0.036392
         2         3         4     1      123.708153      707.830830    ;  uncertainty theta = 0.003390, k = 0.213807
         2         3        34     1      119.673851      263.857889    ;  uncertainty theta = 0.003844, k = 0.096793
         2         7         6     1      121.938660      647.314265    ;  uncertainty theta = 0.005154, k = 0.166973
         2         7         8     1      120.442764      377.294415    ;  uncertainty theta = 0.003328, k = 0.325033
         3         2         7     1      117.063637      399.185719    ;  uncertainty theta = 0.006923, k = 0.225223
         3         4         5     1      114.407791      412.134151    ;  uncertainty theta = 0.005830, k = 0.195985
         4         3        34     1      116.094704      327.892335    ;  uncertainty theta = 0.003866, k = 0.054853
         4         5         6     1      128.259567      716.169463    ;  uncertainty theta = 0.004683, k = 0.095684
         4         5         9     1      119.663208      528.401258    ;  uncertainty theta = 0.007157, k = 0.173969
         5         6         7     1      116.613991      418.986141    ;  uncertainty theta = 0.008013, k = 0.266212
         5         9        10     1      113.731033      433.200383    ;  uncertainty theta = 0.003186, k = 0.219732
         5         9        16     1      113.731033      433.200351    ;  uncertainty theta = 0.003186, k = 0.219732
         6         5         9     1      119.423683      548.040796    ;  uncertainty theta = 0.007421, k = 0.143034
         6         7         8     1      118.630997      515.813538    ;  uncertainty theta = 0.002874, k = 0.134435
         7         8        35     1      109.180969      384.899143    ;  uncertainty theta = 0.001964, k = 0.055104
         7         8        36     1      109.180969      384.899143    ;  uncertainty theta = 0.001964, k = 0.055104
         7         8        37     1      109.180969      384.899143    ;  uncertainty theta = 0.001964, k = 0.055104
         9        10        11     1      105.552040      835.068265    ;  uncertainty theta = 0.001870, k = 0.090386
         9        10        38     1      108.556313      456.687341    ;  uncertainty theta = 0.001171, k = 0.064789
         9        10        39     1      108.556313      456.687341    ;  uncertainty theta = 0.001171, k = 0.064789
         9        16        15     1      105.552040      835.068201    ;  uncertainty theta = 0.001870, k = 0.090386
         9        16        46     1      108.556313      456.687341    ;  uncertainty theta = 0.001171, k = 0.064790
         9        16        47     1      108.556313      456.687341    ;  uncertainty theta = 0.001171, k = 0.064790
        10         9        16     1      112.652870      488.906586    ;  uncertainty theta = 0.010000, k = 0.325242
        10        11        12     1      113.001526      495.885112    ;  uncertainty theta = 0.002967, k = 0.272650
        10        11        15     1      106.407143      696.228300    ;  uncertainty theta = 0.000820, k = 0.121960
        10        11        40     1      108.909218      387.529593    ;  uncertainty theta = 0.002428, k = 0.196423
        11        10        38     1      109.942749      401.681046    ;  uncertainty theta = 0.001744, k = 0.042629
        11        10        39     1      109.942749      401.681046    ;  uncertainty theta = 0.001744, k = 0.042629
        11        12        13     1      106.005104      800.142884    ;  uncertainty theta = 0.002837, k = 0.185313
        11        12        41     1      109.812805      398.157914    ;  uncertainty theta = 0.002056, k = 0.096133
        11        12        42     1      109.812805      398.157914    ;  uncertainty theta = 0.002056, k = 0.096133
        11        15        14     1      106.536072      683.535718    ;  uncertainty theta = 0.002057, k = 0.120116
        11        15        16     1      106.407143      696.228492    ;  uncertainty theta = 0.000820, k = 0.121960
        11        15        45     1      109.787766      408.249925    ;  uncertainty theta = 0.001833, k = 0.098421
        12        11        15     1      106.536072      683.535654    ;  uncertainty theta = 0.002057, k = 0.120117
        12        11        40     1      108.976547      381.109245    ;  uncertainty theta = 0.002391, k = 0.150517
        12        13        14     1      114.311745      540.101883    ;  uncertainty theta = 0.003229, k = 0.142692
        12        13        17     1      117.974327      368.182647    ;  uncertainty theta = 0.003980, k = 0.157584
        13        12        41     1      109.203384      457.892789    ;  uncertainty theta = 0.001598, k = 0.109127
        13        12        42     1      109.203384      457.892789    ;  uncertainty theta = 0.001598, k = 0.109127
        13        14        15     1      106.005104      800.142884    ;  uncertainty theta = 0.002837, k = 0.185312
        13        14        43     1      109.203384      457.892789    ;  uncertainty theta = 0.001598, k = 0.109127
        13        14        44     1      109.203384      457.892789    ;  uncertainty theta = 0.001598, k = 0.109127
        13        17        18     1      124.922256      740.345444    ;  uncertainty theta = 0.002458, k = 0.115631
        13        17        19     1      112.159889      368.733068    ;  uncertainty theta = 0.002788, k = 0.265066
        14        13        17     1      117.974327      368.182647    ;  uncertainty theta = 0.003980, k = 0.157584
        14        15        16     1      113.001526      495.885112    ;  uncertainty theta = 0.002967, k = 0.272650
        14        15        45     1      108.976547      381.109245    ;  uncertainty theta = 0.002391, k = 0.150517
        15        11        40     1      109.787766      408.249925    ;  uncertainty theta = 0.001833, k = 0.098421
        15        14        43     1      109.812805      398.157914    ;  uncertainty theta = 0.002056, k = 0.096133
        15        14        44     1      109.812805      398.157914    ;  uncertainty theta = 0.002056, k = 0.096133
        15        16        46     1      109.942749      401.681014    ;  uncertainty theta = 0.001744, k = 0.042629
        15        16        47     1      109.942749      401.681014    ;  uncertainty theta = 0.001744, k = 0.042629
        16        15        45     1      108.909218      387.529561    ;  uncertainty theta = 0.002428, k = 0.196423
        17        19        20     1      122.644753      394.633059    ;  uncertainty theta = 0.009716, k = 0.281698
        17        19        25     1      121.727440      360.483272    ;  uncertainty theta = 0.007459, k = 0.258991
        18        17        19     1      123.973495      474.716636    ;  uncertainty theta = 0.004986, k = 0.295298
        19        20        21     1      116.293533      481.718082    ;  uncertainty theta = 0.003628, k = 0.151958
        19        20        22     1      125.257851      358.228537    ;  uncertainty theta = 0.006392, k = 0.161234
        19        25        24     1      126.248352      383.964293    ;  uncertainty theta = 0.008470, k = 0.143041
        19        25        26     1      115.625549      424.401189    ;  uncertainty theta = 0.005276, k = 0.425221
        20        19        25     1      120.519875      451.018997    ;  uncertainty theta = 0.010533, k = 0.145475
        20        22        23     1      116.906998      480.293111    ;  uncertainty theta = 0.004692, k = 0.077746
        20        22        48     1      120.257713      280.421849    ;  uncertainty theta = 0.001644, k = 0.051464
        21        20        22     1      119.307655      515.150978    ;  uncertainty theta = 0.004276, k = 0.124646
        22        23        24     1      119.580154      501.480038    ;  uncertainty theta = 0.001152, k = 0.050795
        22        23        49     1      120.085129      283.076623    ;  uncertainty theta = 0.000551, k = 0.029815
        23        22        48     1      122.091469      282.690757    ;  uncertainty theta = 0.001292, k = 0.025850
        23        24        25     1      119.295853      511.815512    ;  uncertainty theta = 0.002200, k = 0.078353
        23        24        50     1      121.511391      292.121324    ;  uncertainty theta = 0.001401, k = 0.054323
        24        23        49     1      119.901108      278.613917    ;  uncertainty theta = 0.000633, k = 0.016225
        24        25        26     1      118.568016      453.799094    ;  uncertainty theta = 0.002843, k = 0.118727
        25        24        50     1      118.140259      263.598991    ;  uncertainty theta = 0.002697, k = 0.141621
        25        26        27     1      116.169716      430.317850    ;  uncertainty theta = 0.006654, k = 0.182017
        25        26        30     1      116.169716      430.317850    ;  uncertainty theta = 0.006654, k = 0.182017
        26        27        28     1      105.336914      920.571231    ;  uncertainty theta = 0.004509, k = 0.170853
        26        30        29     1      105.336914      920.571231    ;  uncertainty theta = 0.004509, k = 0.170853
        27        26        30     1      113.935104     1160.946488    ;  uncertainty theta = 0.004391, k = 0.191360
        27        28        29     1      108.874611      885.375859    ;  uncertainty theta = 0.003815, k = 0.097431
        27        28        51     1      119.790878      274.219077    ;  uncertainty theta = 0.003825, k = 0.115835
        28        29        30     1      108.874611      885.375859    ;  uncertainty theta = 0.003815, k = 0.097431
        28        29        52     1      127.065453      242.460680    ;  uncertainty theta = 0.004115, k = 0.077998
        29        28        51     1      127.065453      242.460680    ;  uncertainty theta = 0.004115, k = 0.077998
        30        29        52     1      119.790878      274.219077    ;  uncertainty theta = 0.003825, k = 0.115835
        31         1        32     1      106.621765      316.560210    ;  uncertainty theta = 0.001129, k = 0.023358
        31         1        33     1      106.621765      316.560210    ;  uncertainty theta = 0.001129, k = 0.023358
        32         1        33     1      106.621765      316.560210    ;  uncertainty theta = 0.001129, k = 0.023358
        35         8        36     1      107.105064      314.005733    ;  uncertainty theta = 0.001847, k = 0.020576
        35         8        37     1      107.105064      314.005733    ;  uncertainty theta = 0.001847, k = 0.020576
        36         8        37     1      107.105064      314.005733    ;  uncertainty theta = 0.001847, k = 0.020576
        38        10        39     1      105.123001      312.324913    ;  uncertainty theta = 0.002382, k = 0.114503
        41        12        42     1      105.371437      309.387890    ;  uncertainty theta = 0.003860, k = 0.079571
        43        14        44     1      105.371437      309.387890    ;  uncertainty theta = 0.003860, k = 0.079571
        46        16        47     1      105.123001      312.324913    ;  uncertainty theta = 0.002382, k = 0.114503

[ dihedrals ] ; propers for gromacs 4.5 or higher, use funct 9
;       ai        aj        ak        al funct           phase               k        pn
         1         2         3         4     9        0.000000        0.212487         1    ;  uncertainty k = 0.434623
         1         2         3         4     9      180.000000       10.908917         2    ;  uncertainty k = 0.283198
         1         2         3         4     9        0.000000        1.096032         3    ;  uncertainty k = 0.375903
         1         2         3         4     9      180.000000        1.609158         4    ;  uncertainty k = 0.168196
         1         2         3        34     9        0.000000       -0.376274         1    ;  uncertainty k = 0.615808
         1         2         3        34     9      180.000000        7.121857         2    ;  uncertainty k = 0.145953
         1         2         3        34     9        0.000000        0.358607         3    ;  uncertainty k = 0.375804
         1         2         3        34     9      180.000000        0.942394         4    ;  uncertainty k = 0.256687
         1         2         7         6     9        0.000000        0.272005         1    ;  uncertainty k = 0.859110
         1         2         7         6     9      180.000000        8.939550         2    ;  uncertainty k = 0.596903
         1         2         7         6     9        0.000000        1.111267         3    ;  uncertainty k = 0.452892
         1         2         7         6     9      180.000000        1.469259         4    ;  uncertainty k = 0.174472
         1         2         7         8     9        0.000000       -0.008618         1    ;  uncertainty k = 0.501860
         1         2         7         8     9      180.000000        8.033223         2    ;  uncertainty k = 0.372300
         1         2         7         8     9        0.000000        0.654110         3    ;  uncertainty k = 0.197723
         1         2         7         8     9      180.000000        1.022309         4    ;  uncertainty k = 0.279126
         2         3         4         5     9        0.000000       -0.312354         1    ;  uncertainty k = 0.502892
         2         3         4         5     9      180.000000       16.295638         2    ;  uncertainty k = 0.392121
         2         3         4         5     9        0.000000       -0.535686         3    ;  uncertainty k = 0.945226
         2         3         4         5     9      180.000000        1.284358         4    ;  uncertainty k = 0.459423
         2         7         6         5     9        0.000000       -0.529749         1    ;  uncertainty k = 0.406614
         2         7         6         5     9      180.000000       14.653592         2    ;  uncertainty k = 0.351008
         2         7         6         5     9        0.000000        0.484404         3    ;  uncertainty k = 0.769461
         2         7         6         5     9      180.000000        1.265344         4    ;  uncertainty k = 0.526215
         2         7         8        35     9        0.000000       -0.241082         1    ;  uncertainty k = 0.229153
         2         7         8        35     9      180.000000        2.874685         2    ;  uncertainty k = 0.149153
         2         7         8        35     9        0.000000        0.485099         3    ;  uncertainty k = 0.103691
         2         7         8        35     9      180.000000        0.244096         4    ;  uncertainty k = 0.060848
         2         7         8        36     9        0.000000       -0.241082         1    ;  uncertainty k = 0.229153
         2         7         8        36     9      180.000000        2.874685         2    ;  uncertainty k = 0.149153
         2         7         8        36     9        0.000000        0.485099         3    ;  uncertainty k = 0.103691
         2         7         8        36     9      180.000000        0.244096         4    ;  uncertainty k = 0.060848
         2         7         8        37     9        0.000000       -0.241082         1    ;  uncertainty k = 0.229153
         2         7         8        37     9      180.000000        2.874685         2    ;  uncertainty k = 0.149153
         2         7         8        37     9        0.000000        0.485099         3    ;  uncertainty k = 0.103691
         2         7         8        37     9      180.000000        0.244096         4    ;  uncertainty k = 0.060848
         3         2         1        31     9        0.000000        0.019235         1    ;  uncertainty k = 0.332308
         3         2         1        31     9      180.000000        1.019601         2    ;  uncertainty k = 0.285950
         3         2         1        31     9        0.000000        0.153620         3    ;  uncertainty k = 0.049135
         3         2         1        31     9      180.000000        0.207058         4    ;  uncertainty k = 0.019651
         3         2         1        32     9        0.000000        0.019235         1    ;  uncertainty k = 0.332308
         3         2         1        32     9      180.000000        1.019601         2    ;  uncertainty k = 0.285950
         3         2         1        32     9        0.000000        0.153620         3    ;  uncertainty k = 0.049135
         3         2         1        32     9      180.000000        0.207058         4    ;  uncertainty k = 0.019651
         3         2         1        33     9        0.000000        0.019235         1    ;  uncertainty k = 0.332308
         3         2         1        33     9      180.000000        1.019601         2    ;  uncertainty k = 0.285950
         3         2         1        33     9        0.000000        0.153620         3    ;  uncertainty k = 0.049135
         3         2         1        33     9      180.000000        0.207058         4    ;  uncertainty k = 0.019651
         3         2         7         6     9        0.000000        0.027572         1    ;  uncertainty k = 0.478597
         3         2         7         6     9      180.000000        9.455341         2    ;  uncertainty k = 0.499892
         3         2         7         6     9        0.000000       -0.504099         3    ;  uncertainty k = 0.154347
         3         2         7         6     9      180.000000        1.038360         4    ;  uncertainty k = 0.203278
         3         2         7         8     9        0.000000        0.138451         1    ;  uncertainty k = 0.677775
         3         2         7         8     9      180.000000        5.831460         2    ;  uncertainty k = 0.518679
         3         2         7         8     9        0.000000        0.876023         3    ;  uncertainty k = 0.294834
         3         2         7         8     9      180.000000        1.202118         4    ;  uncertainty k = 0.336535
         3         4         5         6     9        0.000000       -0.273755         1    ;  uncertainty k = 0.743112
         3         4         5         6     9      180.000000        8.659028         2    ;  uncertainty k = 0.499047
         3         4         5         6     9        0.000000        0.838474         3    ;  uncertainty k = 0.519814
         3         4         5         6     9      180.000000        0.803377         4    ;  uncertainty k = 0.111674
         3         4         5         9     9        0.000000        0.569404         1    ;  uncertainty k = 1.547358
         3         4         5         9     9      180.000000       10.204068         2    ;  uncertainty k = 0.347741
         3         4         5         9     9        0.000000        1.967179         3    ;  uncertainty k = 0.537801
         3         4         5         9     9      180.000000        1.036964         4    ;  uncertainty k = 0.133588
         4         3         2         7     9        0.000000       -0.320385         1    ;  uncertainty k = 0.535348
         4         3         2         7     9      180.000000       12.746647         2    ;  uncertainty k = 0.529537
         4         3         2         7     9        0.000000       -0.674963         3    ;  uncertainty k = 0.319388
         4         3         2         7     9      180.000000        1.006894         4    ;  uncertainty k = 0.261566
         4         5         6         7     9        0.000000       -0.560584         1    ;  uncertainty k = 0.700456
         4         5         6         7     9      180.000000        8.220369         2    ;  uncertainty k = 0.617043
         4         5         6         7     9        0.000000        0.761052         3    ;  uncertainty k = 0.529995
         4         5         6         7     9      180.000000        0.690158         4    ;  uncertainty k = 0.134422
         4         5         9        10     9        0.000000        4.621874         1    ;  uncertainty k = 0.450193
         4         5         9        10     9      180.000000       11.279422         2    ;  uncertainty k = 0.184206
         4         5         9        10     9        0.000000        0.226826         3    ;  uncertainty k = 0.245133
         4         5         9        10     9      180.000000       -0.283194         4    ;  uncertainty k = 0.070045
         4         5         9        16     9        0.000000        4.621874         1    ;  uncertainty k = 0.450194
         4         5         9        16     9      180.000000       11.279419         2    ;  uncertainty k = 0.184207
         4         5         9        16     9        0.000000        0.226826         3    ;  uncertainty k = 0.245134
         4         5         9        16     9      180.000000       -0.283194         4    ;  uncertainty k = 0.070046
         5         4         3        34     9        0.000000       -0.173718         1    ;  uncertainty k = 0.816510
         5         4         3        34     9      180.000000       16.302385         2    ;  uncertainty k = 0.455160
         5         4         3        34     9        0.000000        1.564201         3    ;  uncertainty k = 0.812601
         5         4         3        34     9      180.000000        1.237091         4    ;  uncertainty k = 0.555918
         5         6         7         8     9        0.000000        0.336181         1    ;  uncertainty k = 0.781375
         5         6         7         8     9      180.000000       15.198283         2    ;  uncertainty k = 0.638125
         5         6         7         8     9        0.000000        2.496058         3    ;  uncertainty k = 0.347758
         5         6         7         8     9      180.000000        1.768828         4    ;  uncertainty k = 0.410327
         5         9        10        11     9        0.000000       -5.376413         1    ;  uncertainty k = 1.841716
         5         9        10        11     9      180.000000        0.664787         2    ;  uncertainty k = 0.655885
         5         9        10        11     9        0.000000        0.804667         3    ;  uncertainty k = 0.271774
         5         9        10        11     9      180.000000        0.313997         4    ;  uncertainty k = 0.125301
         5         9        10        38     9        0.000000       -0.207941         1    ;  uncertainty k = 0.804478
         5         9        10        38     9      180.000000        1.013439         2    ;  uncertainty k = 0.405486
         5         9        10        38     9        0.000000        0.571323         3    ;  uncertainty k = 0.126186
         5         9        10        38     9      180.000000        0.374268         4    ;  uncertainty k = 0.105345
         5         9        10        39     9        0.000000       -0.207941         1    ;  uncertainty k = 0.804478
         5         9        10        39     9      180.000000        1.013439         2    ;  uncertainty k = 0.405486
         5         9        10        39     9        0.000000        0.571323         3    ;  uncertainty k = 0.126186
         5         9        10        39     9      180.000000        0.374268         4    ;  uncertainty k = 0.105345
         5         9        16        15     9        0.000000       -5.376412         1    ;  uncertainty k = 1.841715
         5         9        16        15     9      180.000000        0.664786         2    ;  uncertainty k = 0.655883
         5         9        16        15     9        0.000000        0.804667         3    ;  uncertainty k = 0.271774
         5         9        16        15     9      180.000000        0.313997         4    ;  uncertainty k = 0.125301
         5         9        16        46     9        0.000000       -0.207942         1    ;  uncertainty k = 0.804478
         5         9        16        46     9      180.000000        1.013439         2    ;  uncertainty k = 0.405486
         5         9        16        46     9        0.000000        0.571324         3    ;  uncertainty k = 0.126187
         5         9        16        46     9      180.000000        0.374269         4    ;  uncertainty k = 0.105346
         5         9        16        47     9        0.000000       -0.207942         1    ;  uncertainty k = 0.804478
         5         9        16        47     9      180.000000        1.013439         2    ;  uncertainty k = 0.405486
         5         9        16        47     9        0.000000        0.571324         3    ;  uncertainty k = 0.126187
         5         9        16        47     9      180.000000        0.374269         4    ;  uncertainty k = 0.105346
         6         5         9        10     9        0.000000        5.148999         1    ;  uncertainty k = 0.469836
         6         5         9        10     9      180.000000       11.243915         2    ;  uncertainty k = 0.166079
         6         5         9        10     9        0.000000        0.235366         3    ;  uncertainty k = 0.221215
         6         5         9        10     9      180.000000       -0.339198         4    ;  uncertainty k = 0.064816
         6         5         9        16     9        0.000000        5.148997         1    ;  uncertainty k = 0.469837
         6         5         9        16     9      180.000000       11.243914         2    ;  uncertainty k = 0.166079
         6         5         9        16     9        0.000000        0.235366         3    ;  uncertainty k = 0.221215
         6         5         9        16     9      180.000000       -0.339198         4    ;  uncertainty k = 0.064816
         6         7         8        35     9        0.000000        0.627516         1    ;  uncertainty k = 0.207965
         6         7         8        35     9      180.000000        3.841991         2    ;  uncertainty k = 0.129194
         6         7         8        35     9        0.000000        0.483088         3    ;  uncertainty k = 0.067380
         6         7         8        35     9      180.000000        0.272662         4    ;  uncertainty k = 0.042493
         6         7         8        36     9        0.000000        0.627516         1    ;  uncertainty k = 0.207965
         6         7         8        36     9      180.000000        3.841991         2    ;  uncertainty k = 0.129194
         6         7         8        36     9        0.000000        0.483088         3    ;  uncertainty k = 0.067380
         6         7         8        36     9      180.000000        0.272662         4    ;  uncertainty k = 0.042493
         6         7         8        37     9        0.000000        0.627516         1    ;  uncertainty k = 0.207965
         6         7         8        37     9      180.000000        3.841991         2    ;  uncertainty k = 0.129194
         6         7         8        37     9        0.000000        0.483088         3    ;  uncertainty k = 0.067380
         6         7         8        37     9      180.000000        0.272662         4    ;  uncertainty k = 0.042493
         7         2         1        31     9        0.000000       -0.058537         1    ;  uncertainty k = 0.269019
         7         2         1        31     9      180.000000        1.190015         2    ;  uncertainty k = 0.197688
         7         2         1        31     9        0.000000        0.521223         3    ;  uncertainty k = 0.059502
         7         2         1        31     9      180.000000        0.273564         4    ;  uncertainty k = 0.051352
         7         2         1        32     9        0.000000       -0.058537         1    ;  uncertainty k = 0.269019
         7         2         1        32     9      180.000000        1.190015         2    ;  uncertainty k = 0.197688
         7         2         1        32     9        0.000000        0.521223         3    ;  uncertainty k = 0.059502
         7         2         1        32     9      180.000000        0.273564         4    ;  uncertainty k = 0.051352
         7         2         1        33     9        0.000000       -0.058537         1    ;  uncertainty k = 0.269019
         7         2         1        33     9      180.000000        1.190015         2    ;  uncertainty k = 0.197688
         7         2         1        33     9        0.000000        0.521223         3    ;  uncertainty k = 0.059502
         7         2         1        33     9      180.000000        0.273564         4    ;  uncertainty k = 0.051352
         7         2         3        34     9        0.000000       -0.547862         1    ;  uncertainty k = 0.470927
         7         2         3        34     9      180.000000        5.783947         2    ;  uncertainty k = 0.571689
         7         2         3        34     9        0.000000        0.976308         3    ;  uncertainty k = 0.301610
         7         2         3        34     9      180.000000        1.292832         4    ;  uncertainty k = 0.130475
         7         6         5         9     9        0.000000        0.343220         1    ;  uncertainty k = 1.023517
         7         6         5         9     9      180.000000        9.680602         2    ;  uncertainty k = 0.535429
         7         6         5         9     9        0.000000        1.756389         3    ;  uncertainty k = 0.273001
         7         6         5         9     9      180.000000        0.945033         4    ;  uncertainty k = 0.207490
         9        10        11        12     9        0.000000       -1.980907         1    ;  uncertainty k = 1.137559
         9        10        11        12     9      180.000000        0.974996         2    ;  uncertainty k = 0.874541
         9        10        11        12     9        0.000000        1.659689         3    ;  uncertainty k = 0.390439
         9        10        11        12     9      180.000000       -0.168237         4    ;  uncertainty k = 0.236838
         9        10        11        15     9        0.000000       -0.252227         1    ;  uncertainty k = 1.683410
         9        10        11        15     9      180.000000        6.159874         2    ;  uncertainty k = 1.115695
         9        10        11        15     9        0.000000        0.669826         3    ;  uncertainty k = 0.345284
         9        10        11        15     9      180.000000       -1.485268         4    ;  uncertainty k = 0.509118
         9        10        11        40     9        0.000000        0.573348         1    ;  uncertainty k = 0.852626
         9        10        11        40     9      180.000000        1.322038         2    ;  uncertainty k = 0.508918
         9        10        11        40     9        0.000000        1.169965         3    ;  uncertainty k = 0.214526
         9        10        11        40     9      180.000000       -0.075279         4    ;  uncertainty k = 0.182151
         9        16        15        11     9        0.000000       -0.252229         1    ;  uncertainty k = 1.683411
         9        16        15        11     9      180.000000        6.159875         2    ;  uncertainty k = 1.115694
         9        16        15        11     9        0.000000        0.669826         3    ;  uncertainty k = 0.345283
         9        16        15        11     9      180.000000       -1.485268         4    ;  uncertainty k = 0.509118
         9        16        15        14     9        0.000000       -1.980908         1    ;  uncertainty k = 1.137555
         9        16        15        14     9      180.000000        0.974996         2    ;  uncertainty k = 0.874541
         9        16        15        14     9        0.000000        1.659689         3    ;  uncertainty k = 0.390439
         9        16        15        14     9      180.000000       -0.168238         4    ;  uncertainty k = 0.236838
         9        16        15        45     9        0.000000        0.573348         1    ;  uncertainty k = 0.852628
         9        16        15        45     9      180.000000        1.322038         2    ;  uncertainty k = 0.508917
         9        16        15        45     9        0.000000        1.169964         3    ;  uncertainty k = 0.214525
         9        16        15        45     9      180.000000       -0.075279         4    ;  uncertainty k = 0.182151
        10         9        16        15     9        0.000000        0.431004         1    ;  uncertainty k = 1.066128
        10         9        16        15     9      180.000000        1.415505         2    ;  uncertainty k = 1.191917
        10         9        16        15     9        0.000000        0.854099         3    ;  uncertainty k = 0.323666
        10         9        16        15     9      180.000000        0.013454         4    ;  uncertainty k = 0.167289
        10         9        16        46     9        0.000000       -2.104914         1    ;  uncertainty k = 0.726130
        10         9        16        46     9      180.000000        1.273250         2    ;  uncertainty k = 0.384185
        10         9        16        46     9        0.000000        1.145516         3    ;  uncertainty k = 0.082935
        10         9        16        46     9      180.000000        0.249925         4    ;  uncertainty k = 0.124485
        10         9        16        47     9        0.000000       -2.104914         1    ;  uncertainty k = 0.726130
        10         9        16        47     9      180.000000        1.273250         2    ;  uncertainty k = 0.384185
        10         9        16        47     9        0.000000        1.145516         3    ;  uncertainty k = 0.082935
        10         9        16        47     9      180.000000        0.249925         4    ;  uncertainty k = 0.124485
        10        11        12        13     9        0.000000       -2.607420         1    ;  uncertainty k = 0.995424
        10        11        12        13     9      180.000000        0.022076         2    ;  uncertainty k = 0.727033
        10        11        12        13     9        0.000000        1.612970         3    ;  uncertainty k = 0.235291
        10        11        12        13     9      180.000000       -0.185713         4    ;  uncertainty k = 0.112586
        10        11        12        41     9        0.000000       -0.498818         1    ;  uncertainty k = 0.107247
        10        11        12        41     9      180.000000       -0.409706         2    ;  uncertainty k = 0.197166
        10        11        12        41     9        0.000000        0.564543         3    ;  uncertainty k = 0.186998
        10        11        12        41     9      180.000000       -0.072177         4    ;  uncertainty k = 0.062323
        10        11        12        42     9        0.000000       -0.498818         1    ;  uncertainty k = 0.107247
        10        11        12        42     9      180.000000       -0.409706         2    ;  uncertainty k = 0.197166
        10        11        12        42     9        0.000000        0.564543         3    ;  uncertainty k = 0.186998
        10        11        12        42     9      180.000000       -0.072177         4    ;  uncertainty k = 0.062323
        10        11        15        14     9        0.000000       -3.847150         1    ;  uncertainty k = 0.842081
        10        11        15        14     9      180.000000        0.994502         2    ;  uncertainty k = 1.017626
        10        11        15        14     9        0.000000        1.189094         3    ;  uncertainty k = 0.581588
        10        11        15        14     9      180.000000       -0.416044         4    ;  uncertainty k = 0.334399
        10        11        15        16     9        0.000000       -3.896618         1    ;  uncertainty k = 1.087275
        10        11        15        16     9      180.000000        1.035025         2    ;  uncertainty k = 1.026286
        10        11        15        16     9        0.000000        1.207838         3    ;  uncertainty k = 0.671623
        10        11        15        16     9      180.000000       -0.436931         4    ;  uncertainty k = 0.343366
        10        11        15        45     9        0.000000       -1.223112         1    ;  uncertainty k = 0.611377
        10        11        15        45     9      180.000000        0.489634         2    ;  uncertainty k = 0.414978
        10        11        15        45     9        0.000000        0.997353         3    ;  uncertainty k = 0.241670
        10        11        15        45     9      180.000000        0.066778         4    ;  uncertainty k = 0.087125
        11        10         9        16     9        0.000000        0.431003         1    ;  uncertainty k = 1.066128
        11        10         9        16     9      180.000000        1.415506         2    ;  uncertainty k = 1.191917
        11        10         9        16     9        0.000000        0.854099         3    ;  uncertainty k = 0.323667
        11        10         9        16     9      180.000000        0.013454         4    ;  uncertainty k = 0.167289
        11        12        13        14     9        0.000000       -0.578347         1    ;  uncertainty k = 0.919747
        11        12        13        14     9      180.000000        0.242792         2    ;  uncertainty k = 0.701024
        11        12        13        14     9        0.000000        0.797027         3    ;  uncertainty k = 0.218418
        11        12        13        14     9      180.000000        0.154107         4    ;  uncertainty k = 0.246781
        11        12        13        17     9        0.000000       -0.209381         1    ;  uncertainty k = 0.966461
        11        12        13        17     9      180.000000       -0.541701         2    ;  uncertainty k = 0.373893
        11        12        13        17     9        0.000000        0.202801         3    ;  uncertainty k = 0.362931
        11        12        13        17     9      180.000000        0.702312         4    ;  uncertainty k = 0.132281
        11        15        14        13     9        0.000000       -0.736764         1    ;  uncertainty k = 0.633515
        11        15        14        13     9      180.000000        6.025412         2    ;  uncertainty k = 1.000861
        11        15        14        13     9        0.000000        0.435197         3    ;  uncertainty k = 0.297546
        11        15        14        13     9      180.000000       -1.170163         4    ;  uncertainty k = 0.204855
        11        15        14        43     9        0.000000        0.480411         1    ;  uncertainty k = 0.492791
        11        15        14        43     9      180.000000       -1.104496         2    ;  uncertainty k = 0.672329
        11        15        14        43     9        0.000000       -0.270073         3    ;  uncertainty k = 0.170671
        11        15        14        43     9      180.000000       -0.013160         4    ;  uncertainty k = 0.174221
        11        15        14        44     9        0.000000        0.480411         1    ;  uncertainty k = 0.492791
        11        15        14        44     9      180.000000       -1.104496         2    ;  uncertainty k = 0.672329
        11        15        14        44     9        0.000000       -0.270073         3    ;  uncertainty k = 0.170671
        11        15        14        44     9      180.000000       -0.013160         4    ;  uncertainty k = 0.174221
        11        15        16        46     9        0.000000        0.646621         1    ;  uncertainty k = 0.517783
        11        15        16        46     9      180.000000       -1.099688         2    ;  uncertainty k = 0.743824
        11        15        16        46     9        0.000000       -0.334779         3    ;  uncertainty k = 0.213643
        11        15        16        46     9      180.000000       -0.018734         4    ;  uncertainty k = 0.206092
        11        15        16        47     9        0.000000        0.646621         1    ;  uncertainty k = 0.517783
        11        15        16        47     9      180.000000       -1.099688         2    ;  uncertainty k = 0.743824
        11        15        16        47     9        0.000000       -0.334779         3    ;  uncertainty k = 0.213643
        11        15        16        47     9      180.000000       -0.018734         4    ;  uncertainty k = 0.206092
        12        11        10        38     9        0.000000       -0.670734         1    ;  uncertainty k = 0.233995
        12        11        10        38     9      180.000000       -0.386310         2    ;  uncertainty k = 0.258590
        12        11        10        38     9        0.000000        0.557637         3    ;  uncertainty k = 0.179621
        12        11        10        38     9      180.000000       -0.081826         4    ;  uncertainty k = 0.095492
        12        11        10        39     9        0.000000       -0.670734         1    ;  uncertainty k = 0.233995
        12        11        10        39     9      180.000000       -0.386310         2    ;  uncertainty k = 0.258590
        12        11        10        39     9        0.000000        0.557637         3    ;  uncertainty k = 0.179621
        12        11        10        39     9      180.000000       -0.081826         4    ;  uncertainty k = 0.095492
        12        11        15        14     9        0.000000       -3.717091         1    ;  uncertainty k = 0.646014
        12        11        15        14     9      180.000000        0.952705         2    ;  uncertainty k = 0.984304
        12        11        15        14     9        0.000000        1.178983         3    ;  uncertainty k = 0.499657
        12        11        15        14     9      180.000000       -0.410261         4    ;  uncertainty k = 0.338854
        12        11        15        16     9        0.000000       -3.847151         1    ;  uncertainty k = 0.842082
        12        11        15        16     9      180.000000        0.994504         2    ;  uncertainty k = 1.017625
        12        11        15        16     9        0.000000        1.189094         3    ;  uncertainty k = 0.581588
        12        11        15        16     9      180.000000       -0.416044         4    ;  uncertainty k = 0.334399
        12        11        15        45     9        0.000000       -1.291634         1    ;  uncertainty k = 0.560343
        12        11        15        45     9      180.000000        0.594321         2    ;  uncertainty k = 0.368266
        12        11        15        45     9        0.000000        1.030260         3    ;  uncertainty k = 0.246250
        12        11        15        45     9      180.000000        0.081405         4    ;  uncertainty k = 0.059901
        12        13        14        15     9        0.000000       -0.578347         1    ;  uncertainty k = 0.919747
        12        13        14        15     9      180.000000        0.242792         2    ;  uncertainty k = 0.701025
        12        13        14        15     9        0.000000        0.797027         3    ;  uncertainty k = 0.218419
        12        13        14        15     9      180.000000        0.154107         4    ;  uncertainty k = 0.246781
        12        13        14        43     9        0.000000       -1.810377         1    ;  uncertainty k = 0.576097
        12        13        14        43     9      180.000000        1.086382         2    ;  uncertainty k = 0.426528
        12        13        14        43     9        0.000000        1.250141         3    ;  uncertainty k = 0.136647
        12        13        14        43     9      180.000000        0.301768         4    ;  uncertainty k = 0.117464
        12        13        14        44     9        0.000000       -1.810377         1    ;  uncertainty k = 0.576097
        12        13        14        44     9      180.000000        1.086382         2    ;  uncertainty k = 0.426528
        12        13        14        44     9        0.000000        1.250141         3    ;  uncertainty k = 0.136647
        12        13        14        44     9      180.000000        0.301768         4    ;  uncertainty k = 0.117464
        12        13        17        18     9        0.000000        6.357003         1    ;  uncertainty k = 0.547606
        12        13        17        18     9      180.000000       16.962734         2    ;  uncertainty k = 0.212954
        12        13        17        18     9        0.000000        0.267170         3    ;  uncertainty k = 0.202910
        12        13        17        18     9      180.000000       -1.190649         4    ;  uncertainty k = 0.124612
        12        13        17        19     9        0.000000        3.407849         1    ;  uncertainty k = 1.339110
        12        13        17        19     9      180.000000        8.996075         2    ;  uncertainty k = 0.412445
        12        13        17        19     9        0.000000        1.595044         3    ;  uncertainty k = 0.230309
        12        13        17        19     9      180.000000       -0.020267         4    ;  uncertainty k = 0.371981
        13        12        11        15     9        0.000000       -0.736762         1    ;  uncertainty k = 0.633517
        13        12        11        15     9      180.000000        6.025413         2    ;  uncertainty k = 1.000861
        13        12        11        15     9        0.000000        0.435196         3    ;  uncertainty k = 0.297545
        13        12        11        15     9      180.000000       -1.170163         4    ;  uncertainty k = 0.204856
        13        12        11        40     9        0.000000        0.123161         1    ;  uncertainty k = 0.632773
        13        12        11        40     9      180.000000        0.836162         2    ;  uncertainty k = 0.434791
        13        12        11        40     9        0.000000        1.098159         3    ;  uncertainty k = 0.161086
        13        12        11        40     9      180.000000       -0.066245         4    ;  uncertainty k = 0.104331
        13        14        15        16     9        0.000000       -2.607419         1    ;  uncertainty k = 0.995424
        13        14        15        16     9      180.000000        0.022076         2    ;  uncertainty k = 0.727033
        13        14        15        16     9        0.000000        1.612970         3    ;  uncertainty k = 0.235290
        13        14        15        16     9      180.000000       -0.185713         4    ;  uncertainty k = 0.112586
        13        14        15        45     9        0.000000        0.123160         1    ;  uncertainty k = 0.632774
        13        14        15        45     9      180.000000        0.836161         2    ;  uncertainty k = 0.434791
        13        14        15        45     9        0.000000        1.098159         3    ;  uncertainty k = 0.161086
        13        14        15        45     9      180.000000       -0.066245         4    ;  uncertainty k = 0.104331
        13        17        19        20     9        0.000000        1.851367         1    ;  uncertainty k = 1.259576
        13        17        19        20     9      180.000000        5.752965         2    ;  uncertainty k = 0.175508
        13        17        19        20     9        0.000000        0.162215         3    ;  uncertainty k = 0.318225
        13        17        19        20     9      180.000000        0.484794         4    ;  uncertainty k = 0.155871
        13        17        19        25     9        0.000000        3.709916         1    ;  uncertainty k = 1.132205
        13        17        19        25     9      180.000000        5.907216         2    ;  uncertainty k = 0.295098
        13        17        19        25     9        0.000000        0.162296         3    ;  uncertainty k = 0.106376
        13        17        19        25     9      180.000000        0.490410         4    ;  uncertainty k = 0.140372
        14        13        12        41     9        0.000000       -1.810377         1    ;  uncertainty k = 0.576098
        14        13        12        41     9      180.000000        1.086382         2    ;  uncertainty k = 0.426526
        14        13        12        41     9        0.000000        1.250141         3    ;  uncertainty k = 0.136647
        14        13        12        41     9      180.000000        0.301768         4    ;  uncertainty k = 0.117464
        14        13        12        42     9        0.000000       -1.810377         1    ;  uncertainty k = 0.576098
        14        13        12        42     9      180.000000        1.086382         2    ;  uncertainty k = 0.426526
        14        13        12        42     9        0.000000        1.250141         3    ;  uncertainty k = 0.136647
        14        13        12        42     9      180.000000        0.301768         4    ;  uncertainty k = 0.117464
        14        13        17        18     9        0.000000        6.357001         1    ;  uncertainty k = 0.547606
        14        13        17        18     9      180.000000       16.962734         2    ;  uncertainty k = 0.212955
        14        13        17        18     9        0.000000        0.267170         3    ;  uncertainty k = 0.202910
        14        13        17        18     9      180.000000       -1.190649         4    ;  uncertainty k = 0.124611
        14        13        17        19     9        0.000000        3.407847         1    ;  uncertainty k = 1.339110
        14        13        17        19     9      180.000000        8.996074         2    ;  uncertainty k = 0.412445
        14        13        17        19     9        0.000000        1.595043         3    ;  uncertainty k = 0.230310
        14        13        17        19     9      180.000000       -0.020268         4    ;  uncertainty k = 0.371981
        14        15        11        40     9        0.000000       -1.291633         1    ;  uncertainty k = 0.560343
        14        15        11        40     9      180.000000        0.594321         2    ;  uncertainty k = 0.368268
        14        15        11        40     9        0.000000        1.030260         3    ;  uncertainty k = 0.246250
        14        15        11        40     9      180.000000        0.081405         4    ;  uncertainty k = 0.059900
        14        15        16        46     9        0.000000       -0.670733         1    ;  uncertainty k = 0.233996
        14        15        16        46     9      180.000000       -0.386309         2    ;  uncertainty k = 0.258591
        14        15        16        46     9        0.000000        0.557638         3    ;  uncertainty k = 0.179621
        14        15        16        46     9      180.000000       -0.081826         4    ;  uncertainty k = 0.095492
        14        15        16        47     9        0.000000       -0.670733         1    ;  uncertainty k = 0.233996
        14        15        16        47     9      180.000000       -0.386309         2    ;  uncertainty k = 0.258591
        14        15        16        47     9        0.000000        0.557638         3    ;  uncertainty k = 0.179621
        14        15        16        47     9      180.000000       -0.081826         4    ;  uncertainty k = 0.095492
        15        11        10        38     9        0.000000        0.646621         1    ;  uncertainty k = 0.517781
        15        11        10        38     9      180.000000       -1.099689         2    ;  uncertainty k = 0.743823
        15        11        10        38     9        0.000000       -0.334778         3    ;  uncertainty k = 0.213644
        15        11        10        38     9      180.000000       -0.018734         4    ;  uncertainty k = 0.206091
        15        11        10        39     9        0.000000        0.646621         1    ;  uncertainty k = 0.517781
        15        11        10        39     9      180.000000       -1.099689         2    ;  uncertainty k = 0.743823
        15        11        10        39     9        0.000000       -0.334778         3    ;  uncertainty k = 0.213644
        15        11        10        39     9      180.000000       -0.018734         4    ;  uncertainty k = 0.206091
        15        11        12        41     9        0.000000        0.480411         1    ;  uncertainty k = 0.492791
        15        11        12        41     9      180.000000       -1.104495         2    ;  uncertainty k = 0.672328
        15        11        12        41     9        0.000000       -0.270073         3    ;  uncertainty k = 0.170671
        15        11        12        41     9      180.000000       -0.013161         4    ;  uncertainty k = 0.174221
        15        11        12        42     9        0.000000        0.480411         1    ;  uncertainty k = 0.492791
        15        11        12        42     9      180.000000       -1.104495         2    ;  uncertainty k = 0.672328
        15        11        12        42     9        0.000000       -0.270073         3    ;  uncertainty k = 0.170671
        15        11        12        42     9      180.000000       -0.013161         4    ;  uncertainty k = 0.174221
        15        14        13        17     9        0.000000       -0.209380         1    ;  uncertainty k = 0.966459
        15        14        13        17     9      180.000000       -0.541701         2    ;  uncertainty k = 0.373894
        15        14        13        17     9        0.000000        0.202801         3    ;  uncertainty k = 0.362931
        15        14        13        17     9      180.000000        0.702311         4    ;  uncertainty k = 0.132281
        16         9        10        38     9        0.000000       -2.104913         1    ;  uncertainty k = 0.726130
        16         9        10        38     9      180.000000        1.273250         2    ;  uncertainty k = 0.384185
        16         9        10        38     9        0.000000        1.145516         3    ;  uncertainty k = 0.082935
        16         9        10        38     9      180.000000        0.249925         4    ;  uncertainty k = 0.124485
        16         9        10        39     9        0.000000       -2.104913         1    ;  uncertainty k = 0.726130
        16         9        10        39     9      180.000000        1.273250         2    ;  uncertainty k = 0.384185
        16         9        10        39     9        0.000000        1.145516         3    ;  uncertainty k = 0.082935
        16         9        10        39     9      180.000000        0.249925         4    ;  uncertainty k = 0.124485
        16        15        11        40     9        0.000000       -1.223110         1    ;  uncertainty k = 0.611378
        16        15        11        40     9      180.000000        0.489635         2    ;  uncertainty k = 0.414979
        16        15        11        40     9        0.000000        0.997353         3    ;  uncertainty k = 0.241669
        16        15        11        40     9      180.000000        0.066778         4    ;  uncertainty k = 0.087125
        16        15        14        43     9        0.000000       -0.498818         1    ;  uncertainty k = 0.107248
        16        15        14        43     9      180.000000       -0.409705         2    ;  uncertainty k = 0.197166
        16        15        14        43     9        0.000000        0.564544         3    ;  uncertainty k = 0.186998
        16        15        14        43     9      180.000000       -0.072177         4    ;  uncertainty k = 0.062323
        16        15        14        44     9        0.000000       -0.498818         1    ;  uncertainty k = 0.107248
        16        15        14        44     9      180.000000       -0.409705         2    ;  uncertainty k = 0.197166
        16        15        14        44     9        0.000000        0.564544         3    ;  uncertainty k = 0.186998
        16        15        14        44     9      180.000000       -0.072177         4    ;  uncertainty k = 0.062323
        17        13        12        41     9        0.000000        1.416105         1    ;  uncertainty k = 0.719804
        17        13        12        41     9      180.000000        0.065610         2    ;  uncertainty k = 0.093474
        17        13        12        41     9        0.000000        0.002232         3    ;  uncertainty k = 0.089343
        17        13        12        41     9      180.000000        0.277826         4    ;  uncertainty k = 0.071341
        17        13        12        42     9        0.000000        1.416105         1    ;  uncertainty k = 0.719804
        17        13        12        42     9      180.000000        0.065610         2    ;  uncertainty k = 0.093474
        17        13        12        42     9        0.000000        0.002232         3    ;  uncertainty k = 0.089343
        17        13        12        42     9      180.000000        0.277826         4    ;  uncertainty k = 0.071341
        17        13        14        43     9        0.000000        1.416105         1    ;  uncertainty k = 0.719804
        17        13        14        43     9      180.000000        0.065610         2    ;  uncertainty k = 0.093472
        17        13        14        43     9        0.000000        0.002232         3    ;  uncertainty k = 0.089343
        17        13        14        43     9      180.000000        0.277826         4    ;  uncertainty k = 0.071341
        17        13        14        44     9        0.000000        1.416105         1    ;  uncertainty k = 0.719804
        17        13        14        44     9      180.000000        0.065610         2    ;  uncertainty k = 0.093472
        17        13        14        44     9        0.000000        0.002232         3    ;  uncertainty k = 0.089343
        17        13        14        44     9      180.000000        0.277826         4    ;  uncertainty k = 0.071341
        17        19        20        21     9        0.000000        0.086680         1    ;  uncertainty k = 0.322670
        17        19        20        21     9      180.000000       11.407953         2    ;  uncertainty k = 0.599565
        17        19        20        21     9        0.000000        1.385161         3    ;  uncertainty k = 0.187005
        17        19        20        21     9      180.000000        1.483635         4    ;  uncertainty k = 0.318096
        17        19        20        22     9        0.000000        0.114462         1    ;  uncertainty k = 0.659063
        17        19        20        22     9      180.000000        6.312817         2    ;  uncertainty k = 0.577136
        17        19        20        22     9        0.000000        1.356865         3    ;  uncertainty k = 0.282275
        17        19        20        22     9      180.000000        1.940646         4    ;  uncertainty k = 0.196893
        17        19        25        24     9        0.000000        0.266109         1    ;  uncertainty k = 0.262230
        17        19        25        24     9      180.000000        6.791976         2    ;  uncertainty k = 0.556220
        17        19        25        24     9        0.000000        1.305735         3    ;  uncertainty k = 0.332052
        17        19        25        24     9      180.000000        1.750369         4    ;  uncertainty k = 0.249436
        17        19        25        26     9        0.000000       -0.079088         1    ;  uncertainty k = 0.890587
        17        19        25        26     9      180.000000       10.037557         2    ;  uncertainty k = 0.622174
        17        19        25        26     9        0.000000        1.315712         3    ;  uncertainty k = 0.504290
        17        19        25        26     9      180.000000        1.286094         4    ;  uncertainty k = 0.361801
        18        17        19        20     9        0.000000       -1.928785         1    ;  uncertainty k = 0.969843
        18        17        19        20     9      180.000000        5.038791         2    ;  uncertainty k = 0.443316
        18        17        19        20     9        0.000000        0.869540         3    ;  uncertainty k = 0.424298
        18        17        19        20     9      180.000000        0.459984         4    ;  uncertainty k = 0.229979
        18        17        19        25     9        0.000000       -3.997731         1    ;  uncertainty k = 0.906468
        18        17        19        25     9      180.000000        5.945518         2    ;  uncertainty k = 0.542758
        18        17        19        25     9        0.000000        0.551178         3    ;  uncertainty k = 0.549645
        18        17        19        25     9      180.000000        0.513462         4    ;  uncertainty k = 0.329406
        19        20        22        23     9        0.000000        0.011529         1    ;  uncertainty k = 0.194930
        19        20        22        23     9      180.000000        8.787238         2    ;  uncertainty k = 0.361867
        19        20        22        23     9        0.000000        0.106727         3    ;  uncertainty k = 0.344316
        19        20        22        23     9      180.000000        1.205900         4    ;  uncertainty k = 0.276948
        19        20        22        48     9        0.000000       -0.168918         1    ;  uncertainty k = 0.390695
        19        20        22        48     9      180.000000        5.695522         2    ;  uncertainty k = 0.674905
        19        20        22        48     9        0.000000        1.129293         3    ;  uncertainty k = 0.356557
        19        20        22        48     9      180.000000        1.505167         4    ;  uncertainty k = 0.216214
        19        25        24        23     9        0.000000       -0.242508         1    ;  uncertainty k = 0.315737
        19        25        24        23     9      180.000000        9.681246         2    ;  uncertainty k = 0.496020
        19        25        24        23     9        0.000000        0.240132         3    ;  uncertainty k = 0.161668
        19        25        24        23     9      180.000000        1.271249         4    ;  uncertainty k = 0.330409
        19        25        24        50     9        0.000000       -0.007148         1    ;  uncertainty k = 0.345797
        19        25        24        50     9      180.000000        6.393420         2    ;  uncertainty k = 0.363299
        19        25        24        50     9        0.000000        1.235598         3    ;  uncertainty k = 0.195907
        19        25        24        50     9      180.000000        1.608512         4    ;  uncertainty k = 0.191460
        19        25        26        27     9        0.000000       -1.535069         1    ;  uncertainty k = 0.563416
        19        25        26        27     9      180.000000        4.499715         2    ;  uncertainty k = 0.535585
        19        25        26        27     9        0.000000        0.637687         3    ;  uncertainty k = 0.351002
        19        25        26        27     9      180.000000       -0.090463         4    ;  uncertainty k = 0.183190
        19        25        26        30     9        0.000000       -1.535069         1    ;  uncertainty k = 0.563416
        19        25        26        30     9      180.000000        4.499715         2    ;  uncertainty k = 0.535585
        19        25        26        30     9        0.000000        0.637687         3    ;  uncertainty k = 0.351002
        19        25        26        30     9      180.000000       -0.090463         4    ;  uncertainty k = 0.183190
        20        19        25        24     9        0.000000       -0.242351         1    ;  uncertainty k = 0.420152
        20        19        25        24     9      180.000000        6.983637         2    ;  uncertainty k = 0.869640
        20        19        25        24     9        0.000000        0.325219         3    ;  uncertainty k = 0.349953
        20        19        25        24     9      180.000000        1.307286         4    ;  uncertainty k = 0.335099
        20        19        25        26     9        0.000000        0.337460         1    ;  uncertainty k = 0.391009
        20        19        25        26     9      180.000000       10.376661         2    ;  uncertainty k = 0.372710
        20        19        25        26     9        0.000000        1.330823         3    ;  uncertainty k = 0.417773
        20        19        25        26     9      180.000000        1.431413         4    ;  uncertainty k = 0.199546
        20        22        23        24     9        0.000000       -0.033963         1    ;  uncertainty k = 0.110226
        20        22        23        24     9      180.000000       13.984025         2    ;  uncertainty k = 0.340845
        20        22        23        24     9        0.000000       -1.042557         3    ;  uncertainty k = 0.357764
        20        22        23        24     9      180.000000        0.802609         4    ;  uncertainty k = 0.247483
        20        22        23        49     9        0.000000       -0.104379         1    ;  uncertainty k = 0.141872
        20        22        23        49     9      180.000000        7.264410         2    ;  uncertainty k = 0.340044
        20        22        23        49     9        0.000000        1.287730         3    ;  uncertainty k = 0.202339
        20        22        23        49     9      180.000000        1.653500         4    ;  uncertainty k = 0.150967
        21        20        19        25     9        0.000000        0.033254         1    ;  uncertainty k = 0.304862
        21        20        19        25     9      180.000000       11.302610         2    ;  uncertainty k = 0.302059
        21        20        19        25     9        0.000000        1.679241         3    ;  uncertainty k = 0.164696
        21        20        19        25     9      180.000000        1.555515         4    ;  uncertainty k = 0.157671
        21        20        22        23     9        0.000000       -0.080232         1    ;  uncertainty k = 0.461474
        21        20        22        23     9      180.000000       13.203682         2    ;  uncertainty k = 0.340325
        21        20        22        23     9        0.000000        1.295972         3    ;  uncertainty k = 0.165134
        21        20        22        23     9      180.000000        1.523069         4    ;  uncertainty k = 0.233966
        21        20        22        48     9        0.000000       -0.128834         1    ;  uncertainty k = 0.456012
        21        20        22        48     9      180.000000        9.556552         2    ;  uncertainty k = 0.491147
        21        20        22        48     9        0.000000        0.767278         3    ;  uncertainty k = 0.273034
        21        20        22        48     9      180.000000        1.024642         4    ;  uncertainty k = 0.200947
        22        20        19        25     9        0.000000       -0.325541         1    ;  uncertainty k = 0.355388
        22        20        19        25     9      180.000000        6.052960         2    ;  uncertainty k = 0.864094
        22        20        19        25     9        0.000000        0.684668         3    ;  uncertainty k = 0.181781
        22        20        19        25     9      180.000000        1.492448         4    ;  uncertainty k = 0.353261
        22        23        24        25     9        0.000000       -0.096416         1    ;  uncertainty k = 0.180639
        22        23        24        25     9      180.000000       13.532949         2    ;  uncertainty k = 0.268821
        22        23        24        25     9        0.000000       -0.934273         3    ;  uncertainty k = 0.410646
        22        23        24        25     9      180.000000        0.824229         4    ;  uncertainty k = 0.239882
        22        23        24        50     9        0.000000        0.090918         1    ;  uncertainty k = 0.138952
        22        23        24        50     9      180.000000        7.803070         2    ;  uncertainty k = 0.340548
        22        23        24        50     9        0.000000        1.340932         3    ;  uncertainty k = 0.288750
        22        23        24        50     9      180.000000        1.895629         4    ;  uncertainty k = 0.190611
        23        24        25        26     9        0.000000        0.460449         1    ;  uncertainty k = 0.322983
        23        24        25        26     9      180.000000       11.387678         2    ;  uncertainty k = 0.346993
        23        24        25        26     9        0.000000        0.982542         3    ;  uncertainty k = 0.164036
        23        24        25        26     9      180.000000        1.624026         4    ;  uncertainty k = 0.138288
        24        23        22        48     9        0.000000        0.058868         1    ;  uncertainty k = 0.276257
        24        23        22        48     9      180.000000        7.716329         2    ;  uncertainty k = 0.326791
        24        23        22        48     9        0.000000        1.437490         3    ;  uncertainty k = 0.272563
        24        23        22        48     9      180.000000        1.759669         4    ;  uncertainty k = 0.126329
        24        25        26        27     9        0.000000        2.394481         1    ;  uncertainty k = 0.740964
        24        25        26        27     9      180.000000        4.329586         2    ;  uncertainty k = 0.263950
        24        25        26        27     9        0.000000        0.391713         3    ;  uncertainty k = 0.190597
        24        25        26        27     9      180.000000        0.083730         4    ;  uncertainty k = 0.150415
        24        25        26        30     9        0.000000        2.394481         1    ;  uncertainty k = 0.740964
        24        25        26        30     9      180.000000        4.329586         2    ;  uncertainty k = 0.263950
        24        25        26        30     9        0.000000        0.391713         3    ;  uncertainty k = 0.190597
        24        25        26        30     9      180.000000        0.083730         4    ;  uncertainty k = 0.150415
        25        24        23        49     9        0.000000       -0.010723         1    ;  uncertainty k = 0.237400
        25        24        23        49     9      180.000000        7.958978         2    ;  uncertainty k = 0.442749
        25        24        23        49     9        0.000000        1.209101         3    ;  uncertainty k = 0.164443
        25        24        23        49     9      180.000000        1.723739         4    ;  uncertainty k = 0.144208
        25        26        27        28     9        0.000000        0.797559         1    ;  uncertainty k = 2.309877
        25        26        27        28     9      180.000000       14.114446         2    ;  uncertainty k = 0.418682
        25        26        27        28     9        0.000000        1.402880         3    ;  uncertainty k = 0.442527
        25        26        27        28     9      180.000000        0.112613         4    ;  uncertainty k = 0.206946
        25        26        30        29     9        0.000000        0.797559         1    ;  uncertainty k = 2.309877
        25        26        30        29     9      180.000000       14.114446         2    ;  uncertainty k = 0.418682
        25        26        30        29     9        0.000000        1.402880         3    ;  uncertainty k = 0.442527
        25        26        30        29     9      180.000000        0.112613         4    ;  uncertainty k = 0.206946
        26        25        24        50     9        0.000000        0.135211         1    ;  uncertainty k = 0.398577
        26        25        24        50     9      180.000000        8.519176         2    ;  uncertainty k = 0.273746
        26        25        24        50     9        0.000000        0.803950         3    ;  uncertainty k = 0.224881
        26        25        24        50     9      180.000000        1.348903         4    ;  uncertainty k = 0.152778
        26        27        28        29     9        0.000000        0.015899         1    ;  uncertainty k = 0.518603
        26        27        28        29     9      180.000000       24.370143         2    ;  uncertainty k = 0.366584
        26        27        28        29     9        0.000000       -9.715998         3    ;  uncertainty k = 1.915613
        26        27        28        29     9      180.000000        2.426696         4    ;  uncertainty k = 0.655510
        26        27        28        51     9        0.000000        0.232294         1    ;  uncertainty k = 0.741580
        26        27        28        51     9      180.000000       22.028694         2    ;  uncertainty k = 0.487024
        26        27        28        51     9        0.000000        1.455895         3    ;  uncertainty k = 0.397708
        26        27        28        51     9      180.000000        1.220382         4    ;  uncertainty k = 0.604170
        26        30        29        28     9        0.000000        0.015899         1    ;  uncertainty k = 0.518603
        26        30        29        28     9      180.000000       24.370143         2    ;  uncertainty k = 0.366584
        26        30        29        28     9        0.000000       -9.715998         3    ;  uncertainty k = 1.915613
        26        30        29        28     9      180.000000        2.426696         4    ;  uncertainty k = 0.655510
        26        30        29        52     9        0.000000        0.232294         1    ;  uncertainty k = 0.741580
        26        30        29        52     9      180.000000       22.028694         2    ;  uncertainty k = 0.487024
        26        30        29        52     9        0.000000        1.455895         3    ;  uncertainty k = 0.397708
        26        30        29        52     9      180.000000        1.220382         4    ;  uncertainty k = 0.604170
        27        26        30        29     9        0.000000       -0.822391         1    ;  uncertainty k = 0.769863
        27        26        30        29     9      180.000000       22.038729         2    ;  uncertainty k = 0.271382
        27        26        30        29     9        0.000000       -8.305140         3    ;  uncertainty k = 1.269833
        27        26        30        29     9      180.000000        1.298759         4    ;  uncertainty k = 0.596553
        27        28        29        30     9        0.000000       -0.480158         1    ;  uncertainty k = 0.926462
        27        28        29        30     9      180.000000       16.735216         2    ;  uncertainty k = 1.309662
        27        28        29        30     9        0.000000      -12.155219         3    ;  uncertainty k = 1.939945
        27        28        29        30     9      180.000000        1.991293         4    ;  uncertainty k = 0.750423
        27        28        29        52     9        0.000000        0.154897         1    ;  uncertainty k = 0.970262
        27        28        29        52     9      180.000000       11.842300         2    ;  uncertainty k = 0.614370
        27        28        29        52     9        0.000000        0.922189         3    ;  uncertainty k = 0.757887
        27        28        29        52     9      180.000000        0.630945         4    ;  uncertainty k = 0.172002
        28        27        26        30     9        0.000000       -0.822391         1    ;  uncertainty k = 0.769863
        28        27        26        30     9      180.000000       22.038729         2    ;  uncertainty k = 0.271382
        28        27        26        30     9        0.000000       -8.305140         3    ;  uncertainty k = 1.269833
        28        27        26        30     9      180.000000        1.298759         4    ;  uncertainty k = 0.596553
        30        29        28        51     9        0.000000        0.154897         1    ;  uncertainty k = 0.970262
        30        29        28        51     9      180.000000       11.842300         2    ;  uncertainty k = 0.614370
        30        29        28        51     9        0.000000        0.922189         3    ;  uncertainty k = 0.757887
        30        29        28        51     9      180.000000        0.630945         4    ;  uncertainty k = 0.172002
        38        10        11        40     9        0.000000        0.359872         1    ;  uncertainty k = 0.316166
        38        10        11        40     9      180.000000       -0.360044         2    ;  uncertainty k = 0.197279
        38        10        11        40     9        0.000000        0.364903         3    ;  uncertainty k = 0.128583
        38        10        11        40     9      180.000000       -0.036803         4    ;  uncertainty k = 0.081429
        39        10        11        40     9        0.000000        0.359872         1    ;  uncertainty k = 0.316166
        39        10        11        40     9      180.000000       -0.360044         2    ;  uncertainty k = 0.197279
        39        10        11        40     9        0.000000        0.364903         3    ;  uncertainty k = 0.128583
        39        10        11        40     9      180.000000       -0.036803         4    ;  uncertainty k = 0.081429
        40        11        12        41     9        0.000000        0.423998         1    ;  uncertainty k = 0.297943
        40        11        12        41     9      180.000000       -0.322771         2    ;  uncertainty k = 0.253711
        40        11        12        41     9        0.000000        0.343158         3    ;  uncertainty k = 0.128710
        40        11        12        41     9      180.000000       -0.041305         4    ;  uncertainty k = 0.061986
        40        11        12        42     9        0.000000        0.423998         1    ;  uncertainty k = 0.297943
        40        11        12        42     9      180.000000       -0.322771         2    ;  uncertainty k = 0.253711
        40        11        12        42     9        0.000000        0.343158         3    ;  uncertainty k = 0.128710
        40        11        12        42     9      180.000000       -0.041305         4    ;  uncertainty k = 0.061986
        40        11        15        45     9        0.000000        3.534566         1    ;  uncertainty k = 1.183407
        40        11        15        45     9      180.000000       -0.219654         2    ;  uncertainty k = 0.641097
        40        11        15        45     9        0.000000        0.578188         3    ;  uncertainty k = 0.579178
        40        11        15        45     9      180.000000        0.212498         4    ;  uncertainty k = 0.291708
        43        14        15        45     9        0.000000        0.424000         1    ;  uncertainty k = 0.297943
        43        14        15        45     9      180.000000       -0.322771         2    ;  uncertainty k = 0.253710
        43        14        15        45     9        0.000000        0.343158         3    ;  uncertainty k = 0.128710
        43        14        15        45     9      180.000000       -0.041305         4    ;  uncertainty k = 0.061986
        44        14        15        45     9        0.000000        0.424000         1    ;  uncertainty k = 0.297943
        44        14        15        45     9      180.000000       -0.322771         2    ;  uncertainty k = 0.253710
        44        14        15        45     9        0.000000        0.343158         3    ;  uncertainty k = 0.128710
        44        14        15        45     9      180.000000       -0.041305         4    ;  uncertainty k = 0.061986
        45        15        16        46     9        0.000000        0.359873         1    ;  uncertainty k = 0.316165
        45        15        16        46     9      180.000000       -0.360044         2    ;  uncertainty k = 0.197281
        45        15        16        46     9        0.000000        0.364903         3    ;  uncertainty k = 0.128582
        45        15        16        46     9      180.000000       -0.036803         4    ;  uncertainty k = 0.081429
        45        15        16        47     9        0.000000        0.359873         1    ;  uncertainty k = 0.316165
        45        15        16        47     9      180.000000       -0.360044         2    ;  uncertainty k = 0.197281
        45        15        16        47     9        0.000000        0.364903         3    ;  uncertainty k = 0.128582
        45        15        16        47     9      180.000000       -0.036803         4    ;  uncertainty k = 0.081429
        48        22        23        49     9        0.000000       -0.020811         1    ;  uncertainty k = 0.168739
        48        22        23        49     9      180.000000        7.628630         2    ;  uncertainty k = 0.494067
        48        22        23        49     9        0.000000       -0.419007         3    ;  uncertainty k = 0.338955
        48        22        23        49     9      180.000000        0.009969         4    ;  uncertainty k = 0.203192
        49        23        24        50     9        0.000000        0.041837         1    ;  uncertainty k = 0.123335
        49        23        24        50     9      180.000000        7.941958         2    ;  uncertainty k = 0.372063
        49        23        24        50     9        0.000000       -0.460822         3    ;  uncertainty k = 0.327229
        49        23        24        50     9      180.000000        0.152785         4    ;  uncertainty k = 0.182743
        51        28        29        52     9        0.000000       -0.942648         1    ;  uncertainty k = 1.117582
        51        28        29        52     9      180.000000        4.272735         2    ;  uncertainty k = 0.760818
        51        28        29        52     9        0.000000        1.314863         3    ;  uncertainty k = 0.353594
        51        28        29        52     9      180.000000        0.150448         4    ;  uncertainty k = 0.159865

[ dihedrals ] ; impropers
;       ai        aj        ak        al funct           phase               k        pn
         2         1         3         7     4      180.000000        8.585271         2    ;  uncertainty k = 0.282410
         2         3         7         1     4      180.000000        8.585271         2    ;  uncertainty k = 0.282410
         2         7         1         3     4      180.000000        8.585271         2    ;  uncertainty k = 0.282410
         3         2         4        34     4      180.000000       15.739751         2    ;  uncertainty k = 0.107945
         3         4        34         2     4      180.000000       15.739751         2    ;  uncertainty k = 0.107945
         3        34         2         4     4      180.000000       15.739751         2    ;  uncertainty k = 0.107945
         5         4         6         9     4      180.000000       42.077554         2    ;  uncertainty k = 0.070310
         5         6         9         4     4      180.000000       42.077554         2    ;  uncertainty k = 0.070310
         5         9         4         6     4      180.000000       42.077554         2    ;  uncertainty k = 0.070310
         7         2         6         8     4      180.000000       29.847800         2    ;  uncertainty k = 0.047076
         7         6         8         2     4      180.000000       29.847800         2    ;  uncertainty k = 0.047076
         7         8         2         6     4      180.000000       29.847800         2    ;  uncertainty k = 0.047076
         9         5        10        16     4      180.000000        0.108353         2    ;  uncertainty k = 0.148369
         9        10        16         5     4      180.000000        0.108353         2    ;  uncertainty k = 0.148369
         9        16         5        10     4      180.000000        0.108353         2    ;  uncertainty k = 0.148369
        17        13        18        19     4      180.000000       52.212280         2    ;  uncertainty k = 0.071533
        17        18        19        13     4      180.000000       52.212280         2    ;  uncertainty k = 0.071533
        17        19        13        18     4      180.000000       52.212280         2    ;  uncertainty k = 0.071533
        19        17        20        25     4      180.000000        9.307072         2    ;  uncertainty k = 0.434424
        19        20        25        17     4      180.000000        9.307072         2    ;  uncertainty k = 0.434424
        19        25        17        20     4      180.000000        9.307072         2    ;  uncertainty k = 0.434424
        20        19        21        22     4      180.000000       15.115266         2    ;  uncertainty k = 0.210077
        20        21        22        19     4      180.000000       15.115266         2    ;  uncertainty k = 0.210077
        20        22        19        21     4      180.000000       15.115266         2    ;  uncertainty k = 0.210077
        22        20        23        48     4      180.000000        2.461870         2    ;  uncertainty k = 0.103991
        22        23        48        20     4      180.000000        2.461870         2    ;  uncertainty k = 0.103991
        22        48        20        23     4      180.000000        2.461870         2    ;  uncertainty k = 0.103991
        23        22        24        49     4      180.000000        4.937369         2    ;  uncertainty k = 0.112088
        23        24        49        22     4      180.000000        4.937369         2    ;  uncertainty k = 0.112088
        23        49        22        24     4      180.000000        4.937369         2    ;  uncertainty k = 0.112088
        24        23        25        50     4      180.000000        2.847064         2    ;  uncertainty k = 0.193191
        24        25        50        23     4      180.000000        2.847064         2    ;  uncertainty k = 0.193191
        24        50        23        25     4      180.000000        2.847064         2    ;  uncertainty k = 0.193191
        25        19        24        26     4      180.000000       12.584197         2    ;  uncertainty k = 0.129690
        25        24        26        19     4      180.000000       12.584197         2    ;  uncertainty k = 0.129690
        25        26        19        24     4      180.000000       12.584197         2    ;  uncertainty k = 0.129690
        28        27        29        51     4      180.000000        0.414726         2    ;  uncertainty k = 0.408832
        28        29        51        27     4      180.000000        0.414726         2    ;  uncertainty k = 0.408832
        28        51        27        29     4      180.000000        0.414726         2    ;  uncertainty k = 0.408832
        29        28        30        52     4      180.000000        0.414726         2    ;  uncertainty k = 0.408832
        29        30        52        28     4      180.000000        0.414726         2    ;  uncertainty k = 0.408832
        29        52        28        30     4      180.000000        0.414726         2    ;  uncertainty k = 0.408832

[ pairs ]
;       ai        aj funct
         1         4     1
         1         6     1
         1         8     1
         1        34     1
         2         5     1
         2        35     1
         2        36     1
         2        37     1
         3         6     1
         3         8     1
         3         9     1
         3        31     1
         3        32     1
         3        33     1
         4         7     1
         4        10     1
         4        16     1
         5         8     1
         5        11     1
         5        15     1
         5        34     1
         5        38     1
         5        39     1
         5        46     1
         5        47     1
         6        10     1
         6        16     1
         6        35     1
         6        36     1
         6        37     1
         7         9     1
         7        31     1
         7        32     1
         7        33     1
         7        34     1
         9        12     1
         9        14     1
         9        40     1
         9        45     1
        10        13     1
        10        14     1
        10        41     1
        10        42     1
        10        45     1
        10        46     1
        10        47     1
        11        17     1
        11        43     1
        11        44     1
        11        46     1
        11        47     1
        12        16     1
        12        18     1
        12        19     1
        12        38     1
        12        39     1
        12        43     1
        12        44     1
        12        45     1
        13        16     1
        13        20     1
        13        25     1
        13        40     1
        13        45     1
        14        18     1
        14        19     1
        14        40     1
        14        41     1
        14        42     1
        14        46     1
        14        47     1
        15        17     1
        15        38     1
        15        39     1
        15        41     1
        15        42     1
        16        38     1
        16        39     1
        16        40     1
        16        43     1
        16        44     1
        17        21     1
        17        22     1
        17        24     1
        17        26     1
        17        41     1
        17        42     1
        17        43     1
        17        44     1
        18        20     1
        18        25     1
        19        23     1
        19        27     1
        19        30     1
        19        48     1
        19        50     1
        20        24     1
        20        26     1
        20        49     1
        21        23     1
        21        25     1
        21        48     1
        22        25     1
        22        50     1
        23        26     1
        24        27     1
        24        30     1
        24        48     1
        25        28     1
        25        29     1
        25        49     1
        26        50     1
        26        51     1
        26        52     1
        27        52     1
        30        51     1
        38        40     1
        39        40     1
        40        41     1
        40        42     1
        40        45     1
        43        45     1
        44        45     1
        45        46     1
        45        47     1
        48        49     1
        49        50     1
        51        52     1
