; ITP file created by ByteFF-joint-25, 2025-07-14 11:28:34.105652

[ atomtypes ]
;name           bonded.type        at.num        mass        charge   ptype           sigma         epsilon
 c0bf                                   6      0.0000       0.00000       A     3.39773e-01     4.50930e-01    ;  uncertainty sigma = 0.000007, epsilon = 0.000592
 c1bf                                   6      0.0000       0.00000       A     3.31513e-01     4.13196e-01    ;  uncertainty sigma = 0.000010, epsilon = 0.000652
 c2bf                                   6      0.0000       0.00000       A     3.31529e-01     4.13415e-01    ;  uncertainty sigma = 0.000010, epsilon = 0.001309
 c3bf                                   6      0.0000       0.00000       A     3.31552e-01     4.13151e-01    ;  uncertainty sigma = 0.000022, epsilon = 0.001369
 n4bf                                   7      0.0000       0.00000       A     3.38414e-01     3.92807e-01    ;  uncertainty sigma = 0.000010, epsilon = 0.001265
 c5bf                                   6      0.0000       0.00000       A     3.31520e-01     4.13042e-01    ;  uncertainty sigma = 0.000012, epsilon = 0.000957
 n6bf                                   7      0.0000       0.00000       A     3.38407e-01     3.93685e-01    ;  uncertainty sigma = 0.000013, epsilon = 0.000791
 n7bf                                   7      0.0000       0.00000       A     3.18950e-01     8.99076e-01    ;  uncertainty sigma = 0.000052, epsilon = 0.003577
 c8bf                                   6      0.0000       0.00000       A     3.39774e-01     4.50953e-01    ;  uncertainty sigma = 0.000012, epsilon = 0.001229
 c9bf                                   6      0.0000       0.00000       A     3.39776e-01     4.51373e-01    ;  uncertainty sigma = 0.000009, epsilon = 0.000969
 c10bf                                  6      0.0000       0.00000       A     3.39784e-01     4.51219e-01    ;  uncertainty sigma = 0.000006, epsilon = 0.000696
 n11bf                                  7      0.0000       0.00000       A     3.18086e-01     6.84039e-01    ;  uncertainty sigma = 0.000014, epsilon = 0.001467
 c12bf                                  6      0.0000       0.00000       A     3.39784e-01     4.51219e-01    ;  uncertainty sigma = 0.000006, epsilon = 0.000696
 c13bf                                  6      0.0000       0.00000       A     3.39776e-01     4.51373e-01    ;  uncertainty sigma = 0.000009, epsilon = 0.000969
 c14bf                                  6      0.0000       0.00000       A     3.39774e-01     4.50953e-01    ;  uncertainty sigma = 0.000012, epsilon = 0.001229
 c15bf                                  6      0.0000       0.00000       A     3.31486e-01     4.13134e-01    ;  uncertainty sigma = 0.000026, epsilon = 0.002146
 o16bf                                  8      0.0000       0.00000       A     3.04851e-01     6.12019e-01    ;  uncertainty sigma = 0.000026, epsilon = 0.001020
 c17bf                                  6      0.0000       0.00000       A     3.31488e-01     4.12415e-01    ;  uncertainty sigma = 0.000034, epsilon = 0.001171
 c18bf                                  6      0.0000       0.00000       A     3.31513e-01     4.12834e-01    ;  uncertainty sigma = 0.000016, epsilon = 0.001291
 f19bf                                  9      0.0000       0.00000       A     3.03451e-01     3.47872e-01    ;  uncertainty sigma = 0.000029, epsilon = 0.000470
 c20bf                                  6      0.0000       0.00000       A     3.31522e-01     4.13335e-01    ;  uncertainty sigma = 0.000005, epsilon = 0.000662
 c21bf                                  6      0.0000       0.00000       A     3.31521e-01     4.13421e-01    ;  uncertainty sigma = 0.000006, epsilon = 0.000781
 c22bf                                  6      0.0000       0.00000       A     3.31510e-01     4.13240e-01    ;  uncertainty sigma = 0.000014, epsilon = 0.000923
 c23bf                                  6      0.0000       0.00000       A     3.31553e-01     4.13601e-01    ;  uncertainty sigma = 0.000013, epsilon = 0.001582
 n24bf                                  7      0.0000       0.00000       A     3.20569e-01     8.54049e-01    ;  uncertainty sigma = 0.000030, epsilon = 0.002792
 n25bf                                  7      0.0000       0.00000       A     3.38413e-01     3.93694e-01    ;  uncertainty sigma = 0.000010, epsilon = 0.000693
 c26bf                                  6      0.0000       0.00000       A     3.31537e-01     4.13587e-01    ;  uncertainty sigma = 0.000007, epsilon = 0.000835
 c27bf                                  6      0.0000       0.00000       A     3.31537e-01     4.13587e-01    ;  uncertainty sigma = 0.000007, epsilon = 0.000835
 n28bf                                  7      0.0000       0.00000       A     3.38413e-01     3.93694e-01    ;  uncertainty sigma = 0.000010, epsilon = 0.000693
 c29bf                                  6      0.0000       0.00000       A     3.31542e-01     4.13489e-01    ;  uncertainty sigma = 0.000023, epsilon = 0.000666
 o30bf                                  8      0.0000       0.00000       A     3.04843e-01     6.13096e-01    ;  uncertainty sigma = 0.000009, epsilon = 0.002010
 n31bf                                  7      0.0000       0.00000       A     3.18068e-01     6.84367e-01    ;  uncertainty sigma = 0.000007, epsilon = 0.001498
 c32bf                                  6      0.0000       0.00000       A     3.39779e-01     4.50787e-01    ;  uncertainty sigma = 0.000006, epsilon = 0.000683
 c33bf                                  6      0.0000       0.00000       A     3.39779e-01     4.50787e-01    ;  uncertainty sigma = 0.000006, epsilon = 0.000683
 h34bf                                  1      0.0000       0.00000       A     2.60034e-01     8.66332e-02    ;  uncertainty sigma = 0.000007, epsilon = 0.000537
 h35bf                                  1      0.0000       0.00000       A     2.60034e-01     8.66332e-02    ;  uncertainty sigma = 0.000007, epsilon = 0.000537
 h36bf                                  1      0.0000       0.00000       A     2.60034e-01     8.66332e-02    ;  uncertainty sigma = 0.000007, epsilon = 0.000537
 h37bf                                  1      0.0000       0.00000       A     2.62575e-01     6.70892e-02    ;  uncertainty sigma = 0.000004, epsilon = 0.000626
 h38bf                                  1      0.0000       0.00000       A     2.42199e-01     8.66324e-02    ;  uncertainty sigma = 0.000024, epsilon = 0.001250
 h39bf                                  1      0.0000       0.00000       A     2.42199e-01     8.66324e-02    ;  uncertainty sigma = 0.000024, epsilon = 0.001250
 h40bf                                  1      0.0000       0.00000       A     2.59994e-01     8.68892e-02    ;  uncertainty sigma = 0.000026, epsilon = 0.000553
 h41bf                                  1      0.0000       0.00000       A     2.42194e-01     8.66543e-02    ;  uncertainty sigma = 0.000021, epsilon = 0.000863
 h42bf                                  1      0.0000       0.00000       A     2.42194e-01     8.66543e-02    ;  uncertainty sigma = 0.000021, epsilon = 0.000863
 h43bf                                  1      0.0000       0.00000       A     2.42194e-01     8.66545e-02    ;  uncertainty sigma = 0.000021, epsilon = 0.000863
 h44bf                                  1      0.0000       0.00000       A     2.42194e-01     8.66545e-02    ;  uncertainty sigma = 0.000021, epsilon = 0.000863
 h45bf                                  1      0.0000       0.00000       A     2.59994e-01     8.68892e-02    ;  uncertainty sigma = 0.000026, epsilon = 0.000553
 h46bf                                  1      0.0000       0.00000       A     2.42199e-01     8.66324e-02    ;  uncertainty sigma = 0.000024, epsilon = 0.001250
 h47bf                                  1      0.0000       0.00000       A     2.42199e-01     8.66324e-02    ;  uncertainty sigma = 0.000024, epsilon = 0.001250
 h48bf                                  1      0.0000       0.00000       A     2.62565e-01     6.70682e-02    ;  uncertainty sigma = 0.000010, epsilon = 0.000430
 h49bf                                  1      0.0000       0.00000       A     2.62565e-01     6.69658e-02    ;  uncertainty sigma = 0.000011, epsilon = 0.000532
 h50bf                                  1      0.0000       0.00000       A     2.62555e-01     6.71502e-02    ;  uncertainty sigma = 0.000013, epsilon = 0.000465
 h51bf                                  1      0.0000       0.00000       A     2.53604e-01     6.70805e-02    ;  uncertainty sigma = 0.000028, epsilon = 0.000600
 h52bf                                  1      0.0000       0.00000       A     2.53604e-01     6.70805e-02    ;  uncertainty sigma = 0.000028, epsilon = 0.000600
 h53bf                                  1      0.0000       0.00000       A     2.42196e-01     8.67627e-02    ;  uncertainty sigma = 0.000011, epsilon = 0.000510
 h54bf                                  1      0.0000       0.00000       A     2.42196e-01     8.67627e-02    ;  uncertainty sigma = 0.000011, epsilon = 0.000510
 h55bf                                  1      0.0000       0.00000       A     2.42196e-01     8.67627e-02    ;  uncertainty sigma = 0.000011, epsilon = 0.000510
 h56bf                                  1      0.0000       0.00000       A     2.42196e-01     8.67625e-02    ;  uncertainty sigma = 0.000011, epsilon = 0.000510
 h57bf                                  1      0.0000       0.00000       A     2.42196e-01     8.67625e-02    ;  uncertainty sigma = 0.000011, epsilon = 0.000510
 h58bf                                  1      0.0000       0.00000       A     2.42196e-01     8.67625e-02    ;  uncertainty sigma = 0.000011, epsilon = 0.000510

[ moleculetype ]
;name             nrexcl
 MOL                   3

[ atoms ]
;       nr            type      resi   res      atom      cgnr      charge          mass ; qtot
         1            c0bf         1   UNL        c0         1    -0.14991       12.0110 ; qtot   -0.150
         2            c1bf         1   UNL        c1         2     0.48614       12.0110 ; qtot    0.336
         3            c2bf         1   UNL        c2         3    -0.35580       12.0110 ; qtot   -0.020
         4            c3bf         1   UNL        c3         4     0.42998       12.0110 ; qtot    0.410
         5            n4bf         1   UNL        n4         5    -0.76468       14.0070 ; qtot   -0.354
         6            c5bf         1   UNL        c5         6     0.91066       12.0110 ; qtot    0.556
         7            n6bf         1   UNL        n6         7    -0.76462       14.0070 ; qtot   -0.208
         8            n7bf         1   UNL        n7         8    -0.78779       14.0070 ; qtot   -0.996
         9            c8bf         1   UNL        c8         9     0.23390       12.0110 ; qtot   -0.762
        10            c9bf         1   UNL        c9        10    -0.09743       12.0110 ; qtot   -0.860
        11           c10bf         1   UNL       c10        11     0.11057       12.0110 ; qtot   -0.749
        12           n11bf         1   UNL       n11        12    -0.47239       14.0070 ; qtot   -1.221
        13           c12bf         1   UNL       c12        13     0.11057       12.0110 ; qtot   -1.111
        14           c13bf         1   UNL       c13        14    -0.09743       12.0110 ; qtot   -1.208
        15           c14bf         1   UNL       c14        15     0.23390       12.0110 ; qtot   -0.974
        16           c15bf         1   UNL       c15        16     0.70764       12.0110 ; qtot   -0.267
        17           o16bf         1   UNL       o16        17    -0.58293       15.9990 ; qtot   -0.850
        18           c17bf         1   UNL       c17        18    -0.15596       12.0110 ; qtot   -1.006
        19           c18bf         1   UNL       c18        19     0.16292       12.0110 ; qtot   -0.843
        20           f19bf         1   UNL       f19        20    -0.13494       18.9980 ; qtot   -0.978
        21           c20bf         1   UNL       c20        21    -0.15817       12.0110 ; qtot   -1.136
        22           c21bf         1   UNL       c21        22    -0.08197       12.0110 ; qtot   -1.218
        23           c22bf         1   UNL       c22        23    -0.13048       12.0110 ; qtot   -1.348
        24           c23bf         1   UNL       c23        24     0.07222       12.0110 ; qtot   -1.276
        25           n24bf         1   UNL       n24        25     0.30201       14.0070 ; qtot   -0.974
        26           n25bf         1   UNL       n25        26    -0.47243       14.0070 ; qtot   -1.446
        27           c26bf         1   UNL       c26        27     0.20275       12.0110 ; qtot   -1.244
        28           c27bf         1   UNL       c27        28     0.20275       12.0110 ; qtot   -1.041
        29           n28bf         1   UNL       n28        29    -0.47243       14.0070 ; qtot   -1.513
        30           c29bf         1   UNL       c29        30     0.57690       12.0110 ; qtot   -0.936
        31           o30bf         1   UNL       o30        31    -0.59670       15.9990 ; qtot   -1.533
        32           n31bf         1   UNL       n31        32    -0.46497       14.0070 ; qtot   -1.998
        33           c32bf         1   UNL       c32        33     0.08726       12.0110 ; qtot   -1.911
        34           c33bf         1   UNL       c33        34     0.08726       12.0110 ; qtot   -1.824
        35           h34bf         1   UNL       h34        35     0.05868        1.0080 ; qtot   -1.765
        36           h35bf         1   UNL       h35        36     0.05868        1.0080 ; qtot   -1.706
        37           h36bf         1   UNL       h36        37     0.05868        1.0080 ; qtot   -1.648
        38           h37bf         1   UNL       h37        38     0.17405        1.0080 ; qtot   -1.474
        39           h38bf         1   UNL       h38        39     0.05891        1.0080 ; qtot   -1.415
        40           h39bf         1   UNL       h39        40     0.05891        1.0080 ; qtot   -1.356
        41           h40bf         1   UNL       h40        41     0.07237        1.0080 ; qtot   -1.283
        42           h41bf         1   UNL       h41        42     0.05981        1.0080 ; qtot   -1.224
        43           h42bf         1   UNL       h42        43     0.05981        1.0080 ; qtot   -1.164
        44           h43bf         1   UNL       h43        44     0.05981        1.0080 ; qtot   -1.104
        45           h44bf         1   UNL       h44        45     0.05981        1.0080 ; qtot   -1.044
        46           h45bf         1   UNL       h45        46     0.07237        1.0080 ; qtot   -0.972
        47           h46bf         1   UNL       h46        47     0.05891        1.0080 ; qtot   -0.913
        48           h47bf         1   UNL       h47        48     0.05891        1.0080 ; qtot   -0.854
        49           h48bf         1   UNL       h48        49     0.15846        1.0080 ; qtot   -0.695
        50           h49bf         1   UNL       h49        50     0.14574        1.0080 ; qtot   -0.550
        51           h50bf         1   UNL       h50        51     0.16350        1.0080 ; qtot   -0.386
        52           h51bf         1   UNL       h51        52     0.05496        1.0080 ; qtot   -0.331
        53           h52bf         1   UNL       h52        53     0.05496        1.0080 ; qtot   -0.276
        54           h53bf         1   UNL       h53        54     0.04605        1.0080 ; qtot   -0.230
        55           h54bf         1   UNL       h54        55     0.04605        1.0080 ; qtot   -0.184
        56           h55bf         1   UNL       h55        56     0.04605        1.0080 ; qtot   -0.138
        57           h56bf         1   UNL       h56        57     0.04605        1.0080 ; qtot   -0.092
        58           h57bf         1   UNL       h57        58     0.04605        1.0080 ; qtot   -0.046
        59           h58bf         1   UNL       h58        59     0.04602        1.0080 ; qtot    0.000

[ bonds ]
;       ai        aj funct               r               k
         1         2     1        0.150533   256601.012012    ;  uncertainty r = 0.000043, k = 5.916511
         1        35     1        0.109444   310537.557666    ;  uncertainty r = 0.000015, k = 1.598098
         1        36     1        0.109444   310537.557666    ;  uncertainty r = 0.000015, k = 1.598098
         1        37     1        0.109444   310537.557666    ;  uncertainty r = 0.000015, k = 1.598098
         2         3     1        0.140612   426661.689014    ;  uncertainty r = 0.000187, k = 11.923258
         2         7     1        0.133949   464454.848828    ;  uncertainty r = 0.000068, k = 9.525375
         3         4     1        0.139982   367591.826855    ;  uncertainty r = 0.000240, k = 11.786494
         3        38     1        0.108658   343328.304199    ;  uncertainty r = 0.000023, k = 3.073928
         4         5     1        0.133844   401142.915283    ;  uncertainty r = 0.000118, k = 13.094832
         4        30     1        0.150776   234471.472363    ;  uncertainty r = 0.000277, k = 32.178753
         5         6     1        0.136175   470480.840527    ;  uncertainty r = 0.000264, k = 21.581481
         6         7     1        0.135749   487887.393945    ;  uncertainty r = 0.000092, k = 17.249744
         6         8     1        0.136621   311139.186426    ;  uncertainty r = 0.000167, k = 19.369322
         8         9     1        0.146381   223708.423486    ;  uncertainty r = 0.000058, k = 14.342742
         8        15     1        0.146381   223708.423486    ;  uncertainty r = 0.000058, k = 14.342733
         9        10     1        0.153378   218045.467334    ;  uncertainty r = 0.000067, k = 7.088220
         9        39     1        0.109551   306518.450781    ;  uncertainty r = 0.000069, k = 2.534282
         9        40     1        0.109551   306518.450781    ;  uncertainty r = 0.000069, k = 2.534282
        10        11     1        0.153480   216617.049121    ;  uncertainty r = 0.000023, k = 7.412723
        10        14     1        0.154451   200722.496875    ;  uncertainty r = 0.000080, k = 20.796785
        10        41     1        0.109350   305021.261133    ;  uncertainty r = 0.000029, k = 3.829702
        11        12     1        0.146976   241154.380664    ;  uncertainty r = 0.000047, k = 15.575172
        11        42     1        0.109439   307434.875488    ;  uncertainty r = 0.000026, k = 1.171544
        11        43     1        0.109439   307434.875488    ;  uncertainty r = 0.000026, k = 1.171544
        12        13     1        0.146976   241154.380664    ;  uncertainty r = 0.000047, k = 15.575144
        12        16     1        0.135088   335723.021045    ;  uncertainty r = 0.000166, k = 15.024462
        13        14     1        0.153480   216617.049121    ;  uncertainty r = 0.000023, k = 7.412681
        13        44     1        0.109439   307434.875488    ;  uncertainty r = 0.000026, k = 1.171521
        13        45     1        0.109439   307434.875488    ;  uncertainty r = 0.000026, k = 1.171521
        14        15     1        0.153378   218045.441797    ;  uncertainty r = 0.000067, k = 7.088228
        14        46     1        0.109350   305021.261133    ;  uncertainty r = 0.000029, k = 3.829660
        15        47     1        0.109551   306518.450781    ;  uncertainty r = 0.000069, k = 2.534287
        15        48     1        0.109551   306518.450781    ;  uncertainty r = 0.000069, k = 2.534287
        16        17     1        0.123492   739384.865723    ;  uncertainty r = 0.000039, k = 10.151716
        16        18     1        0.151093   272101.603271    ;  uncertainty r = 0.000079, k = 31.154101
        18        19     1        0.139399   331888.649609    ;  uncertainty r = 0.000087, k = 16.801357
        18        24     1        0.139529   322378.221484    ;  uncertainty r = 0.000112, k = 6.618765
        19        20     1        0.135284   339697.693359    ;  uncertainty r = 0.000139, k = 6.883764
        19        21     1        0.138876   355374.082080    ;  uncertainty r = 0.000029, k = 4.848304
        21        22     1        0.139230   385818.044873    ;  uncertainty r = 0.000031, k = 3.156029
        21        49     1        0.108754   335743.833789    ;  uncertainty r = 0.000014, k = 1.461762
        22        23     1        0.139117   371572.781299    ;  uncertainty r = 0.000042, k = 2.923689
        22        50     1        0.108705   332118.687891    ;  uncertainty r = 0.000011, k = 1.593644
        23        24     1        0.139176   333973.831201    ;  uncertainty r = 0.000089, k = 2.958672
        23        51     1        0.108623   333131.336426    ;  uncertainty r = 0.000019, k = 1.837628
        24        25     1        0.140554   317671.476855    ;  uncertainty r = 0.000102, k = 8.472881
        25        26     1        0.134456   229486.015723    ;  uncertainty r = 0.000080, k = 10.859863
        25        29     1        0.134456   229486.015723    ;  uncertainty r = 0.000080, k = 10.859863
        26        27     1        0.132965   463550.937305    ;  uncertainty r = 0.000052, k = 7.730519
        27        28     1        0.141781   249584.001709    ;  uncertainty r = 0.000103, k = 15.332670
        27        52     1        0.108418   339910.136572    ;  uncertainty r = 0.000037, k = 1.124302
        28        29     1        0.132965   463550.937305    ;  uncertainty r = 0.000052, k = 7.730519
        28        53     1        0.108418   339910.136572    ;  uncertainty r = 0.000037, k = 1.124302
        30        31     1        0.123701   673978.097559    ;  uncertainty r = 0.000052, k = 8.010437
        30        32     1        0.136368   370530.662939    ;  uncertainty r = 0.000090, k = 17.302017
        32        33     1        0.145877   249698.612256    ;  uncertainty r = 0.000022, k = 8.521034
        32        34     1        0.145877   249698.612256    ;  uncertainty r = 0.000022, k = 8.521034
        33        54     1        0.109423   310972.378027    ;  uncertainty r = 0.000016, k = 1.693666
        33        55     1        0.109423   310972.378027    ;  uncertainty r = 0.000016, k = 1.693666
        33        56     1        0.109423   310972.378027    ;  uncertainty r = 0.000016, k = 1.693666
        34        57     1        0.109423   310972.352490    ;  uncertainty r = 0.000016, k = 1.693678
        34        58     1        0.109423   310972.378027    ;  uncertainty r = 0.000016, k = 1.693666
        34        59     1        0.109423   310972.352490    ;  uncertainty r = 0.000016, k = 1.693678

[ angles ]
;       ai        aj        ak funct           theta             cth
         1         2         3     1      122.158043      414.522254    ;  uncertainty theta = 0.004659, k = 0.192858
         1         2         7     1      118.845497      506.951523    ;  uncertainty theta = 0.002397, k = 0.200027
         2         1        35     1      108.815140      384.027498    ;  uncertainty theta = 0.001325, k = 0.051688
         2         1        36     1      108.815140      384.027498    ;  uncertainty theta = 0.001325, k = 0.051688
         2         1        37     1      108.815140      384.027498    ;  uncertainty theta = 0.001325, k = 0.051688
         2         3         4     1      115.936523      452.292660    ;  uncertainty theta = 0.007470, k = 0.244625
         2         3        38     1      122.555748      270.721482    ;  uncertainty theta = 0.002697, k = 0.098167
         2         7         6     1      115.332260      411.931291    ;  uncertainty theta = 0.009544, k = 0.263759
         3         2         7     1      120.586105      651.138703    ;  uncertainty theta = 0.004133, k = 0.176510
         3         4         5     1      123.869492      642.053685    ;  uncertainty theta = 0.004351, k = 0.131985
         3         4        30     1      121.097351      344.882908    ;  uncertainty theta = 0.004919, k = 0.135684
         4         3        38     1      123.433960      267.349275    ;  uncertainty theta = 0.004891, k = 0.125459
         4         5         6     1      117.283859      380.506760    ;  uncertainty theta = 0.010192, k = 0.222549
         4        30        31     1      120.960182      495.814917    ;  uncertainty theta = 0.006696, k = 0.179038
         4        30        32     1      112.027512      392.875148    ;  uncertainty theta = 0.003489, k = 0.064847
         5         4        30     1      116.926308      380.415146    ;  uncertainty theta = 0.007405, k = 0.420220
         5         6         7     1      129.746902      717.728759    ;  uncertainty theta = 0.004647, k = 0.201334
         5         6         8     1      119.838013      563.138399    ;  uncertainty theta = 0.008725, k = 0.166728
         6         8         9     1      113.609779      423.177993    ;  uncertainty theta = 0.004384, k = 0.215385
         6         8        15     1      113.609779      423.178025    ;  uncertainty theta = 0.004384, k = 0.215385
         7         6         8     1      119.692406      556.645078    ;  uncertainty theta = 0.007518, k = 0.176998
         8         9        10     1      105.543358      834.662672    ;  uncertainty theta = 0.001817, k = 0.093259
         8         9        39     1      108.562340      456.415818    ;  uncertainty theta = 0.001202, k = 0.062362
         8         9        40     1      108.562340      456.415818    ;  uncertainty theta = 0.001202, k = 0.062362
         8        15        14     1      105.543358      834.662672    ;  uncertainty theta = 0.001817, k = 0.093260
         8        15        47     1      108.562340      456.415882    ;  uncertainty theta = 0.001202, k = 0.062362
         8        15        48     1      108.562340      456.415882    ;  uncertainty theta = 0.001202, k = 0.062362
         9         8        15     1      112.639450      489.228386    ;  uncertainty theta = 0.009972, k = 0.334405
         9        10        11     1      113.001526      495.885112    ;  uncertainty theta = 0.002967, k = 0.272650
         9        10        14     1      106.407143      696.228300    ;  uncertainty theta = 0.000820, k = 0.121960
         9        10        41     1      108.909218      387.529593    ;  uncertainty theta = 0.002428, k = 0.196423
        10         9        39     1      109.942749      401.681046    ;  uncertainty theta = 0.001744, k = 0.042629
        10         9        40     1      109.942749      401.681046    ;  uncertainty theta = 0.001744, k = 0.042629
        10        11        12     1      106.005104      800.142884    ;  uncertainty theta = 0.002837, k = 0.185313
        10        11        42     1      109.812805      398.157914    ;  uncertainty theta = 0.002056, k = 0.096133
        10        11        43     1      109.812805      398.157914    ;  uncertainty theta = 0.002056, k = 0.096133
        10        14        13     1      106.536072      683.535718    ;  uncertainty theta = 0.002057, k = 0.120116
        10        14        15     1      106.407143      696.228492    ;  uncertainty theta = 0.000820, k = 0.121960
        10        14        46     1      109.787766      408.249925    ;  uncertainty theta = 0.001833, k = 0.098421
        11        10        14     1      106.536072      683.535654    ;  uncertainty theta = 0.002057, k = 0.120117
        11        10        41     1      108.976547      381.109245    ;  uncertainty theta = 0.002391, k = 0.150517
        11        12        13     1      114.311745      540.101883    ;  uncertainty theta = 0.003229, k = 0.142692
        11        12        16     1      117.974327      368.182647    ;  uncertainty theta = 0.003980, k = 0.157584
        12        11        42     1      109.203384      457.892789    ;  uncertainty theta = 0.001598, k = 0.109127
        12        11        43     1      109.203384      457.892789    ;  uncertainty theta = 0.001598, k = 0.109127
        12        13        14     1      106.005104      800.142884    ;  uncertainty theta = 0.002837, k = 0.185312
        12        13        44     1      109.203384      457.892789    ;  uncertainty theta = 0.001598, k = 0.109127
        12        13        45     1      109.203384      457.892789    ;  uncertainty theta = 0.001598, k = 0.109127
        12        16        17     1      124.922256      740.345444    ;  uncertainty theta = 0.002458, k = 0.115631
        12        16        18     1      112.159889      368.733068    ;  uncertainty theta = 0.002788, k = 0.265066
        13        12        16     1      117.974327      368.182647    ;  uncertainty theta = 0.003980, k = 0.157584
        13        14        15     1      113.001526      495.885112    ;  uncertainty theta = 0.002967, k = 0.272650
        13        14        46     1      108.976547      381.109245    ;  uncertainty theta = 0.002391, k = 0.150517
        14        10        41     1      109.787766      408.249925    ;  uncertainty theta = 0.001833, k = 0.098421
        14        13        44     1      109.812805      398.157914    ;  uncertainty theta = 0.002056, k = 0.096133
        14        13        45     1      109.812805      398.157914    ;  uncertainty theta = 0.002056, k = 0.096133
        14        15        47     1      109.942749      401.681014    ;  uncertainty theta = 0.001744, k = 0.042629
        14        15        48     1      109.942749      401.681014    ;  uncertainty theta = 0.001744, k = 0.042629
        15        14        46     1      108.909218      387.529561    ;  uncertainty theta = 0.002428, k = 0.196423
        16        18        19     1      122.644753      394.633059    ;  uncertainty theta = 0.009716, k = 0.281698
        16        18        24     1      121.727440      360.483272    ;  uncertainty theta = 0.007459, k = 0.258991
        17        16        18     1      123.973495      474.716636    ;  uncertainty theta = 0.004986, k = 0.295298
        18        19        20     1      116.293533      481.718082    ;  uncertainty theta = 0.003628, k = 0.151958
        18        19        21     1      125.257851      358.228537    ;  uncertainty theta = 0.006392, k = 0.161234
        18        24        23     1      126.248352      383.964293    ;  uncertainty theta = 0.008470, k = 0.143041
        18        24        25     1      115.625549      424.401189    ;  uncertainty theta = 0.005276, k = 0.425221
        19        18        24     1      120.519875      451.018997    ;  uncertainty theta = 0.010533, k = 0.145475
        19        21        22     1      116.906998      480.293111    ;  uncertainty theta = 0.004692, k = 0.077746
        19        21        49     1      120.257713      280.421849    ;  uncertainty theta = 0.001644, k = 0.051464
        20        19        21     1      119.307655      515.150978    ;  uncertainty theta = 0.004276, k = 0.124646
        21        22        23     1      119.580154      501.480038    ;  uncertainty theta = 0.001152, k = 0.050795
        21        22        50     1      120.085129      283.076623    ;  uncertainty theta = 0.000551, k = 0.029815
        22        21        49     1      122.091469      282.690757    ;  uncertainty theta = 0.001292, k = 0.025850
        22        23        24     1      119.295853      511.815512    ;  uncertainty theta = 0.002200, k = 0.078353
        22        23        51     1      121.511391      292.121324    ;  uncertainty theta = 0.001401, k = 0.054323
        23        22        50     1      119.901108      278.613917    ;  uncertainty theta = 0.000633, k = 0.016225
        23        24        25     1      118.568016      453.799094    ;  uncertainty theta = 0.002843, k = 0.118727
        24        23        51     1      118.140259      263.598991    ;  uncertainty theta = 0.002697, k = 0.141621
        24        25        26     1      116.169716      430.317850    ;  uncertainty theta = 0.006654, k = 0.182017
        24        25        29     1      116.169716      430.317850    ;  uncertainty theta = 0.006654, k = 0.182017
        25        26        27     1      105.336914      920.571231    ;  uncertainty theta = 0.004509, k = 0.170853
        25        29        28     1      105.336914      920.571231    ;  uncertainty theta = 0.004509, k = 0.170853
        26        25        29     1      113.935104     1160.946488    ;  uncertainty theta = 0.004391, k = 0.191360
        26        27        28     1      108.874611      885.375859    ;  uncertainty theta = 0.003815, k = 0.097431
        26        27        52     1      119.790878      274.219077    ;  uncertainty theta = 0.003825, k = 0.115835
        27        28        29     1      108.874611      885.375859    ;  uncertainty theta = 0.003815, k = 0.097431
        27        28        53     1      127.065453      242.460680    ;  uncertainty theta = 0.004115, k = 0.077998
        28        27        52     1      127.065453      242.460680    ;  uncertainty theta = 0.004115, k = 0.077998
        29        28        53     1      119.790878      274.219077    ;  uncertainty theta = 0.003825, k = 0.115835
        30        32        33     1      115.418198      370.752319    ;  uncertainty theta = 0.003869, k = 0.124115
        30        32        34     1      115.418198      370.752319    ;  uncertainty theta = 0.003869, k = 0.124115
        31        30        32     1      124.883812      713.464253    ;  uncertainty theta = 0.002323, k = 0.113366
        32        33        54     1      109.077774      481.131718    ;  uncertainty theta = 0.001147, k = 0.030508
        32        33        55     1      109.077774      481.131718    ;  uncertainty theta = 0.001147, k = 0.030508
        32        33        56     1      109.077774      481.131718    ;  uncertainty theta = 0.001147, k = 0.030508
        32        34        57     1      109.077774      481.131718    ;  uncertainty theta = 0.001147, k = 0.030508
        32        34        58     1      109.077774      481.131718    ;  uncertainty theta = 0.001147, k = 0.030508
        32        34        59     1      109.077774      481.131718    ;  uncertainty theta = 0.001147, k = 0.030508
        33        32        34     1      118.935181      421.271329    ;  uncertainty theta = 0.006188, k = 0.301289
        35         1        36     1      107.153786      312.530199    ;  uncertainty theta = 0.001242, k = 0.032267
        35         1        37     1      107.153786      312.530199    ;  uncertainty theta = 0.001242, k = 0.032267
        36         1        37     1      107.153786      312.530199    ;  uncertainty theta = 0.001242, k = 0.032267
        39         9        40     1      105.123001      312.324913    ;  uncertainty theta = 0.002382, k = 0.114503
        42        11        43     1      105.371437      309.387890    ;  uncertainty theta = 0.003860, k = 0.079571
        44        13        45     1      105.371437      309.387890    ;  uncertainty theta = 0.003860, k = 0.079571
        47        15        48     1      105.123001      312.324913    ;  uncertainty theta = 0.002382, k = 0.114503
        54        33        55     1      106.915283      326.438028    ;  uncertainty theta = 0.000732, k = 0.027106
        54        33        56     1      106.915283      326.438028    ;  uncertainty theta = 0.000732, k = 0.027106
        55        33        56     1      106.915283      326.438028    ;  uncertainty theta = 0.000732, k = 0.027106
        57        34        58     1      106.915283      326.438028    ;  uncertainty theta = 0.000732, k = 0.027106
        57        34        59     1      106.915283      326.438028    ;  uncertainty theta = 0.000732, k = 0.027106
        58        34        59     1      106.915283      326.438028    ;  uncertainty theta = 0.000732, k = 0.027106

[ dihedrals ] ; propers for gromacs 4.5 or higher, use funct 9
;       ai        aj        ak        al funct           phase               k        pn
         1         2         3         4     9        0.000000       -0.030657         1    ;  uncertainty k = 0.346432
         1         2         3         4     9      180.000000        7.269919         2    ;  uncertainty k = 0.252147
         1         2         3         4     9        0.000000        0.791341         3    ;  uncertainty k = 0.282552
         1         2         3         4     9      180.000000        1.266273         4    ;  uncertainty k = 0.214248
         1         2         3        38     9        0.000000       -0.255043         1    ;  uncertainty k = 0.301176
         1         2         3        38     9      180.000000        6.784932         2    ;  uncertainty k = 0.210962
         1         2         3        38     9        0.000000        0.573618         3    ;  uncertainty k = 0.250276
         1         2         3        38     9      180.000000        0.790632         4    ;  uncertainty k = 0.233619
         1         2         7         6     9        0.000000        0.041700         1    ;  uncertainty k = 1.153355
         1         2         7         6     9      180.000000       14.838944         2    ;  uncertainty k = 0.588950
         1         2         7         6     9        0.000000        2.366651         3    ;  uncertainty k = 0.342019
         1         2         7         6     9      180.000000        1.670140         4    ;  uncertainty k = 0.497382
         2         3         4         5     9        0.000000       -0.235412         1    ;  uncertainty k = 0.349704
         2         3         4         5     9      180.000000       11.417248         2    ;  uncertainty k = 0.551543
         2         3         4         5     9        0.000000       -0.628808         3    ;  uncertainty k = 0.208077
         2         3         4         5     9      180.000000        1.192442         4    ;  uncertainty k = 0.303785
         2         3         4        30     9        0.000000        0.530827         1    ;  uncertainty k = 0.802742
         2         3         4        30     9      180.000000        7.263766         2    ;  uncertainty k = 0.555910
         2         3         4        30     9        0.000000        1.034574         3    ;  uncertainty k = 0.183777
         2         3         4        30     9      180.000000        1.500021         4    ;  uncertainty k = 0.164545
         2         7         6         5     9        0.000000       -0.202605         1    ;  uncertainty k = 0.823716
         2         7         6         5     9      180.000000        8.585917         2    ;  uncertainty k = 0.695480
         2         7         6         5     9        0.000000        0.916151         3    ;  uncertainty k = 0.536580
         2         7         6         5     9      180.000000        0.695021         4    ;  uncertainty k = 0.201612
         2         7         6         8     9        0.000000        0.565358         1    ;  uncertainty k = 1.088264
         2         7         6         8     9      180.000000       10.377693         2    ;  uncertainty k = 0.498517
         2         7         6         8     9        0.000000        1.733445         3    ;  uncertainty k = 0.280931
         2         7         6         8     9      180.000000        0.987918         4    ;  uncertainty k = 0.155725
         3         2         1        35     9        0.000000       -0.280233         1    ;  uncertainty k = 0.242198
         3         2         1        35     9      180.000000        2.199014         2    ;  uncertainty k = 0.305289
         3         2         1        35     9        0.000000        0.340097         3    ;  uncertainty k = 0.073845
         3         2         1        35     9      180.000000        0.158016         4    ;  uncertainty k = 0.030211
         3         2         1        36     9        0.000000       -0.280233         1    ;  uncertainty k = 0.242198
         3         2         1        36     9      180.000000        2.199014         2    ;  uncertainty k = 0.305289
         3         2         1        36     9        0.000000        0.340097         3    ;  uncertainty k = 0.073845
         3         2         1        36     9      180.000000        0.158016         4    ;  uncertainty k = 0.030211
         3         2         1        37     9        0.000000       -0.280233         1    ;  uncertainty k = 0.242198
         3         2         1        37     9      180.000000        2.199014         2    ;  uncertainty k = 0.305289
         3         2         1        37     9        0.000000        0.340097         3    ;  uncertainty k = 0.073845
         3         2         1        37     9      180.000000        0.158016         4    ;  uncertainty k = 0.030211
         3         2         7         6     9        0.000000       -0.209495         1    ;  uncertainty k = 0.376443
         3         2         7         6     9      180.000000       15.345052         2    ;  uncertainty k = 0.381819
         3         2         7         6     9        0.000000        0.395272         3    ;  uncertainty k = 0.433254
         3         2         7         6     9      180.000000        1.036271         4    ;  uncertainty k = 0.344646
         3         4         5         6     9        0.000000       -0.377147         1    ;  uncertainty k = 0.455889
         3         4         5         6     9      180.000000       14.051864         2    ;  uncertainty k = 0.411292
         3         4         5         6     9        0.000000        0.497121         3    ;  uncertainty k = 0.262431
         3         4         5         6     9      180.000000        1.257320         4    ;  uncertainty k = 0.458430
         3         4        30        31     9        0.000000       -2.582425         1    ;  uncertainty k = 0.692787
         3         4        30        31     9      180.000000        1.115364         2    ;  uncertainty k = 0.670006
         3         4        30        31     9        0.000000       -0.133951         3    ;  uncertainty k = 0.218174
         3         4        30        31     9      180.000000        0.153902         4    ;  uncertainty k = 0.191176
         3         4        30        32     9        0.000000        1.553808         1    ;  uncertainty k = 0.824420
         3         4        30        32     9      180.000000        3.595860         2    ;  uncertainty k = 0.322988
         3         4        30        32     9        0.000000        0.284641         3    ;  uncertainty k = 0.234797
         3         4        30        32     9      180.000000        0.192355         4    ;  uncertainty k = 0.143831
         4         3         2         7     9        0.000000       -0.053763         1    ;  uncertainty k = 0.315084
         4         3         2         7     9      180.000000       10.876833         2    ;  uncertainty k = 0.367763
         4         3         2         7     9        0.000000       -1.049274         3    ;  uncertainty k = 0.443426
         4         3         2         7     9      180.000000        1.110102         4    ;  uncertainty k = 0.159184
         4         5         6         7     9        0.000000       -0.643018         1    ;  uncertainty k = 1.659424
         4         5         6         7     9      180.000000        7.481386         2    ;  uncertainty k = 0.496248
         4         5         6         7     9        0.000000        0.978283         3    ;  uncertainty k = 0.434289
         4         5         6         7     9      180.000000        0.855112         4    ;  uncertainty k = 0.128180
         4         5         6         8     9        0.000000        0.019122         1    ;  uncertainty k = 1.045594
         4         5         6         8     9      180.000000       10.181154         2    ;  uncertainty k = 0.646243
         4         5         6         8     9        0.000000        1.688073         3    ;  uncertainty k = 0.264710
         4         5         6         8     9      180.000000        0.938012         4    ;  uncertainty k = 0.199582
         4        30        32        33     9        0.000000        5.274592         1    ;  uncertainty k = 0.636039
         4        30        32        33     9      180.000000        7.791016         2    ;  uncertainty k = 0.229685
         4        30        32        33     9        0.000000        1.434782         3    ;  uncertainty k = 0.234350
         4        30        32        33     9      180.000000       -0.170039         4    ;  uncertainty k = 0.069368
         4        30        32        34     9        0.000000        5.274592         1    ;  uncertainty k = 0.636039
         4        30        32        34     9      180.000000        7.791016         2    ;  uncertainty k = 0.229685
         4        30        32        34     9        0.000000        1.434782         3    ;  uncertainty k = 0.234350
         4        30        32        34     9      180.000000       -0.170039         4    ;  uncertainty k = 0.069368
         5         4         3        38     9        0.000000        0.027620         1    ;  uncertainty k = 0.274968
         5         4         3        38     9      180.000000        8.127557         2    ;  uncertainty k = 0.603648
         5         4         3        38     9        0.000000        1.051418         3    ;  uncertainty k = 0.346657
         5         4         3        38     9      180.000000        1.687679         4    ;  uncertainty k = 0.191801
         5         4        30        31     9        0.000000       -5.709533         1    ;  uncertainty k = 1.012958
         5         4        30        31     9      180.000000        2.093869         2    ;  uncertainty k = 0.290991
         5         4        30        31     9        0.000000       -0.490443         3    ;  uncertainty k = 0.302232
         5         4        30        31     9      180.000000        0.155740         4    ;  uncertainty k = 0.129077
         5         4        30        32     9        0.000000        2.854647         1    ;  uncertainty k = 1.863486
         5         4        30        32     9      180.000000        3.802428         2    ;  uncertainty k = 0.309149
         5         4        30        32     9        0.000000        0.529714         3    ;  uncertainty k = 0.382742
         5         4        30        32     9      180.000000        0.209287         4    ;  uncertainty k = 0.052191
         5         6         8         9     9        0.000000        4.907367         1    ;  uncertainty k = 0.491895
         5         6         8         9     9      180.000000       11.881398         2    ;  uncertainty k = 0.115681
         5         6         8         9     9        0.000000        0.256418         3    ;  uncertainty k = 0.178617
         5         6         8         9     9      180.000000       -0.324738         4    ;  uncertainty k = 0.055440
         5         6         8        15     9        0.000000        4.907367         1    ;  uncertainty k = 0.491894
         5         6         8        15     9      180.000000       11.881398         2    ;  uncertainty k = 0.115681
         5         6         8        15     9        0.000000        0.256418         3    ;  uncertainty k = 0.178617
         5         6         8        15     9      180.000000       -0.324738         4    ;  uncertainty k = 0.055440
         6         5         4        30     9        0.000000        0.143204         1    ;  uncertainty k = 1.140158
         6         5         4        30     9      180.000000       12.751217         2    ;  uncertainty k = 0.525768
         6         5         4        30     9        0.000000        1.897277         3    ;  uncertainty k = 0.494889
         6         5         4        30     9      180.000000        1.337322         4    ;  uncertainty k = 0.468405
         6         8         9        10     9        0.000000       -5.311161         1    ;  uncertainty k = 1.627659
         6         8         9        10     9      180.000000        0.652892         2    ;  uncertainty k = 0.686426
         6         8         9        10     9        0.000000        0.802834         3    ;  uncertainty k = 0.286078
         6         8         9        10     9      180.000000        0.333217         4    ;  uncertainty k = 0.133335
         6         8         9        39     9        0.000000       -0.211070         1    ;  uncertainty k = 0.643614
         6         8         9        39     9      180.000000        1.053149         2    ;  uncertainty k = 0.358111
         6         8         9        39     9        0.000000        0.556385         3    ;  uncertainty k = 0.126293
         6         8         9        39     9      180.000000        0.392988         4    ;  uncertainty k = 0.109529
         6         8         9        40     9        0.000000       -0.211070         1    ;  uncertainty k = 0.643614
         6         8         9        40     9      180.000000        1.053149         2    ;  uncertainty k = 0.358111
         6         8         9        40     9        0.000000        0.556385         3    ;  uncertainty k = 0.126293
         6         8         9        40     9      180.000000        0.392988         4    ;  uncertainty k = 0.109529
         6         8        15        14     9        0.000000       -5.311162         1    ;  uncertainty k = 1.627660
         6         8        15        14     9      180.000000        0.652892         2    ;  uncertainty k = 0.686427
         6         8        15        14     9        0.000000        0.802835         3    ;  uncertainty k = 0.286077
         6         8        15        14     9      180.000000        0.333217         4    ;  uncertainty k = 0.133336
         6         8        15        47     9        0.000000       -0.211070         1    ;  uncertainty k = 0.643613
         6         8        15        47     9      180.000000        1.053149         2    ;  uncertainty k = 0.358110
         6         8        15        47     9        0.000000        0.556384         3    ;  uncertainty k = 0.126293
         6         8        15        47     9      180.000000        0.392988         4    ;  uncertainty k = 0.109529
         6         8        15        48     9        0.000000       -0.211070         1    ;  uncertainty k = 0.643613
         6         8        15        48     9      180.000000        1.053149         2    ;  uncertainty k = 0.358110
         6         8        15        48     9        0.000000        0.556384         3    ;  uncertainty k = 0.126293
         6         8        15        48     9      180.000000        0.392988         4    ;  uncertainty k = 0.109529
         7         2         1        35     9        0.000000        0.579248         1    ;  uncertainty k = 0.311109
         7         2         1        35     9      180.000000        3.704428         2    ;  uncertainty k = 0.084042
         7         2         1        35     9        0.000000        0.490289         3    ;  uncertainty k = 0.044138
         7         2         1        35     9      180.000000        0.283048         4    ;  uncertainty k = 0.044286
         7         2         1        36     9        0.000000        0.579248         1    ;  uncertainty k = 0.311109
         7         2         1        36     9      180.000000        3.704428         2    ;  uncertainty k = 0.084042
         7         2         1        36     9        0.000000        0.490289         3    ;  uncertainty k = 0.044138
         7         2         1        36     9      180.000000        0.283048         4    ;  uncertainty k = 0.044286
         7         2         1        37     9        0.000000        0.579248         1    ;  uncertainty k = 0.311109
         7         2         1        37     9      180.000000        3.704428         2    ;  uncertainty k = 0.084042
         7         2         1        37     9        0.000000        0.490289         3    ;  uncertainty k = 0.044138
         7         2         1        37     9      180.000000        0.283048         4    ;  uncertainty k = 0.044286
         7         2         3        38     9        0.000000        0.100063         1    ;  uncertainty k = 0.473687
         7         2         3        38     9      180.000000        7.672837         2    ;  uncertainty k = 0.457546
         7         2         3        38     9        0.000000        1.095791         3    ;  uncertainty k = 0.319352
         7         2         3        38     9      180.000000        1.677753         4    ;  uncertainty k = 0.070792
         7         6         8         9     9        0.000000        5.126899         1    ;  uncertainty k = 0.453892
         7         6         8         9     9      180.000000       11.847876         2    ;  uncertainty k = 0.131221
         7         6         8         9     9        0.000000        0.190858         3    ;  uncertainty k = 0.220714
         7         6         8         9     9      180.000000       -0.317462         4    ;  uncertainty k = 0.086449
         7         6         8        15     9        0.000000        5.126900         1    ;  uncertainty k = 0.453893
         7         6         8        15     9      180.000000       11.847878         2    ;  uncertainty k = 0.131222
         7         6         8        15     9        0.000000        0.190858         3    ;  uncertainty k = 0.220714
         7         6         8        15     9      180.000000       -0.317462         4    ;  uncertainty k = 0.086450
         8         9        10        11     9        0.000000       -1.986982         1    ;  uncertainty k = 1.131584
         8         9        10        11     9      180.000000        0.974418         2    ;  uncertainty k = 0.865254
         8         9        10        11     9        0.000000        1.658617         3    ;  uncertainty k = 0.387465
         8         9        10        11     9      180.000000       -0.170490         4    ;  uncertainty k = 0.236445
         8         9        10        14     9        0.000000       -0.248945         1    ;  uncertainty k = 1.669286
         8         9        10        14     9      180.000000        6.161827         2    ;  uncertainty k = 1.110761
         8         9        10        14     9        0.000000        0.670927         3    ;  uncertainty k = 0.347090
         8         9        10        14     9      180.000000       -1.488831         4    ;  uncertainty k = 0.506458
         8         9        10        41     9        0.000000        0.565923         1    ;  uncertainty k = 0.856651
         8         9        10        41     9      180.000000        1.324272         2    ;  uncertainty k = 0.513614
         8         9        10        41     9        0.000000        1.171168         3    ;  uncertainty k = 0.217600
         8         9        10        41     9      180.000000       -0.072433         4    ;  uncertainty k = 0.184790
         8        15        14        10     9        0.000000       -0.248945         1    ;  uncertainty k = 1.669289
         8        15        14        10     9      180.000000        6.161828         2    ;  uncertainty k = 1.110762
         8        15        14        10     9        0.000000        0.670927         3    ;  uncertainty k = 0.347090
         8        15        14        10     9      180.000000       -1.488831         4    ;  uncertainty k = 0.506459
         8        15        14        13     9        0.000000       -1.986981         1    ;  uncertainty k = 1.131583
         8        15        14        13     9      180.000000        0.974418         2    ;  uncertainty k = 0.865255
         8        15        14        13     9        0.000000        1.658617         3    ;  uncertainty k = 0.387465
         8        15        14        13     9      180.000000       -0.170489         4    ;  uncertainty k = 0.236445
         8        15        14        46     9        0.000000        0.565924         1    ;  uncertainty k = 0.856650
         8        15        14        46     9      180.000000        1.324273         2    ;  uncertainty k = 0.513614
         8        15        14        46     9        0.000000        1.171169         3    ;  uncertainty k = 0.217600
         8        15        14        46     9      180.000000       -0.072433         4    ;  uncertainty k = 0.184790
         9         8        15        14     9        0.000000        0.409931         1    ;  uncertainty k = 1.033845
         9         8        15        14     9      180.000000        1.423323         2    ;  uncertainty k = 1.181229
         9         8        15        14     9        0.000000        0.860226         3    ;  uncertainty k = 0.332034
         9         8        15        14     9      180.000000        0.010764         4    ;  uncertainty k = 0.168708
         9         8        15        47     9        0.000000       -2.106812         1    ;  uncertainty k = 0.722682
         9         8        15        47     9      180.000000        1.271152         2    ;  uncertainty k = 0.391418
         9         8        15        47     9        0.000000        1.144989         3    ;  uncertainty k = 0.081016
         9         8        15        47     9      180.000000        0.249969         4    ;  uncertainty k = 0.124009
         9         8        15        48     9        0.000000       -2.106812         1    ;  uncertainty k = 0.722682
         9         8        15        48     9      180.000000        1.271152         2    ;  uncertainty k = 0.391418
         9         8        15        48     9        0.000000        1.144989         3    ;  uncertainty k = 0.081016
         9         8        15        48     9      180.000000        0.249969         4    ;  uncertainty k = 0.124009
         9        10        11        12     9        0.000000       -2.607420         1    ;  uncertainty k = 0.995424
         9        10        11        12     9      180.000000        0.022076         2    ;  uncertainty k = 0.727033
         9        10        11        12     9        0.000000        1.612970         3    ;  uncertainty k = 0.235291
         9        10        11        12     9      180.000000       -0.185713         4    ;  uncertainty k = 0.112586
         9        10        11        42     9        0.000000       -0.498818         1    ;  uncertainty k = 0.107247
         9        10        11        42     9      180.000000       -0.409706         2    ;  uncertainty k = 0.197166
         9        10        11        42     9        0.000000        0.564543         3    ;  uncertainty k = 0.186998
         9        10        11        42     9      180.000000       -0.072177         4    ;  uncertainty k = 0.062323
         9        10        11        43     9        0.000000       -0.498818         1    ;  uncertainty k = 0.107247
         9        10        11        43     9      180.000000       -0.409706         2    ;  uncertainty k = 0.197166
         9        10        11        43     9        0.000000        0.564543         3    ;  uncertainty k = 0.186998
         9        10        11        43     9      180.000000       -0.072177         4    ;  uncertainty k = 0.062323
         9        10        14        13     9        0.000000       -3.847150         1    ;  uncertainty k = 0.842081
         9        10        14        13     9      180.000000        0.994502         2    ;  uncertainty k = 1.017626
         9        10        14        13     9        0.000000        1.189094         3    ;  uncertainty k = 0.581588
         9        10        14        13     9      180.000000       -0.416044         4    ;  uncertainty k = 0.334399
         9        10        14        15     9        0.000000       -3.896618         1    ;  uncertainty k = 1.087275
         9        10        14        15     9      180.000000        1.035025         2    ;  uncertainty k = 1.026286
         9        10        14        15     9        0.000000        1.207838         3    ;  uncertainty k = 0.671623
         9        10        14        15     9      180.000000       -0.436931         4    ;  uncertainty k = 0.343366
         9        10        14        46     9        0.000000       -1.223112         1    ;  uncertainty k = 0.611377
         9        10        14        46     9      180.000000        0.489634         2    ;  uncertainty k = 0.414978
         9        10        14        46     9        0.000000        0.997353         3    ;  uncertainty k = 0.241670
         9        10        14        46     9      180.000000        0.066778         4    ;  uncertainty k = 0.087125
        10         9         8        15     9        0.000000        0.409930         1    ;  uncertainty k = 1.033845
        10         9         8        15     9      180.000000        1.423324         2    ;  uncertainty k = 1.181230
        10         9         8        15     9        0.000000        0.860226         3    ;  uncertainty k = 0.332035
        10         9         8        15     9      180.000000        0.010764         4    ;  uncertainty k = 0.168708
        10        11        12        13     9        0.000000       -0.578347         1    ;  uncertainty k = 0.919747
        10        11        12        13     9      180.000000        0.242792         2    ;  uncertainty k = 0.701024
        10        11        12        13     9        0.000000        0.797027         3    ;  uncertainty k = 0.218418
        10        11        12        13     9      180.000000        0.154107         4    ;  uncertainty k = 0.246781
        10        11        12        16     9        0.000000       -0.209381         1    ;  uncertainty k = 0.966461
        10        11        12        16     9      180.000000       -0.541701         2    ;  uncertainty k = 0.373893
        10        11        12        16     9        0.000000        0.202801         3    ;  uncertainty k = 0.362931
        10        11        12        16     9      180.000000        0.702312         4    ;  uncertainty k = 0.132281
        10        14        13        12     9        0.000000       -0.736764         1    ;  uncertainty k = 0.633515
        10        14        13        12     9      180.000000        6.025412         2    ;  uncertainty k = 1.000861
        10        14        13        12     9        0.000000        0.435197         3    ;  uncertainty k = 0.297546
        10        14        13        12     9      180.000000       -1.170163         4    ;  uncertainty k = 0.204855
        10        14        13        44     9        0.000000        0.480411         1    ;  uncertainty k = 0.492791
        10        14        13        44     9      180.000000       -1.104496         2    ;  uncertainty k = 0.672329
        10        14        13        44     9        0.000000       -0.270073         3    ;  uncertainty k = 0.170671
        10        14        13        44     9      180.000000       -0.013160         4    ;  uncertainty k = 0.174221
        10        14        13        45     9        0.000000        0.480411         1    ;  uncertainty k = 0.492791
        10        14        13        45     9      180.000000       -1.104496         2    ;  uncertainty k = 0.672329
        10        14        13        45     9        0.000000       -0.270073         3    ;  uncertainty k = 0.170671
        10        14        13        45     9      180.000000       -0.013160         4    ;  uncertainty k = 0.174221
        10        14        15        47     9        0.000000        0.646621         1    ;  uncertainty k = 0.517783
        10        14        15        47     9      180.000000       -1.099688         2    ;  uncertainty k = 0.743824
        10        14        15        47     9        0.000000       -0.334779         3    ;  uncertainty k = 0.213643
        10        14        15        47     9      180.000000       -0.018734         4    ;  uncertainty k = 0.206092
        10        14        15        48     9        0.000000        0.646621         1    ;  uncertainty k = 0.517783
        10        14        15        48     9      180.000000       -1.099688         2    ;  uncertainty k = 0.743824
        10        14        15        48     9        0.000000       -0.334779         3    ;  uncertainty k = 0.213643
        10        14        15        48     9      180.000000       -0.018734         4    ;  uncertainty k = 0.206092
        11        10         9        39     9        0.000000       -0.670734         1    ;  uncertainty k = 0.233995
        11        10         9        39     9      180.000000       -0.386310         2    ;  uncertainty k = 0.258590
        11        10         9        39     9        0.000000        0.557637         3    ;  uncertainty k = 0.179621
        11        10         9        39     9      180.000000       -0.081826         4    ;  uncertainty k = 0.095492
        11        10         9        40     9        0.000000       -0.670734         1    ;  uncertainty k = 0.233995
        11        10         9        40     9      180.000000       -0.386310         2    ;  uncertainty k = 0.258590
        11        10         9        40     9        0.000000        0.557637         3    ;  uncertainty k = 0.179621
        11        10         9        40     9      180.000000       -0.081826         4    ;  uncertainty k = 0.095492
        11        10        14        13     9        0.000000       -3.717091         1    ;  uncertainty k = 0.646014
        11        10        14        13     9      180.000000        0.952705         2    ;  uncertainty k = 0.984304
        11        10        14        13     9        0.000000        1.178983         3    ;  uncertainty k = 0.499657
        11        10        14        13     9      180.000000       -0.410261         4    ;  uncertainty k = 0.338854
        11        10        14        15     9        0.000000       -3.847151         1    ;  uncertainty k = 0.842082
        11        10        14        15     9      180.000000        0.994504         2    ;  uncertainty k = 1.017625
        11        10        14        15     9        0.000000        1.189094         3    ;  uncertainty k = 0.581588
        11        10        14        15     9      180.000000       -0.416044         4    ;  uncertainty k = 0.334399
        11        10        14        46     9        0.000000       -1.291634         1    ;  uncertainty k = 0.560343
        11        10        14        46     9      180.000000        0.594321         2    ;  uncertainty k = 0.368266
        11        10        14        46     9        0.000000        1.030260         3    ;  uncertainty k = 0.246250
        11        10        14        46     9      180.000000        0.081405         4    ;  uncertainty k = 0.059901
        11        12        13        14     9        0.000000       -0.578347         1    ;  uncertainty k = 0.919747
        11        12        13        14     9      180.000000        0.242792         2    ;  uncertainty k = 0.701025
        11        12        13        14     9        0.000000        0.797027         3    ;  uncertainty k = 0.218419
        11        12        13        14     9      180.000000        0.154107         4    ;  uncertainty k = 0.246781
        11        12        13        44     9        0.000000       -1.810377         1    ;  uncertainty k = 0.576097
        11        12        13        44     9      180.000000        1.086382         2    ;  uncertainty k = 0.426528
        11        12        13        44     9        0.000000        1.250141         3    ;  uncertainty k = 0.136647
        11        12        13        44     9      180.000000        0.301768         4    ;  uncertainty k = 0.117464
        11        12        13        45     9        0.000000       -1.810377         1    ;  uncertainty k = 0.576097
        11        12        13        45     9      180.000000        1.086382         2    ;  uncertainty k = 0.426528
        11        12        13        45     9        0.000000        1.250141         3    ;  uncertainty k = 0.136647
        11        12        13        45     9      180.000000        0.301768         4    ;  uncertainty k = 0.117464
        11        12        16        17     9        0.000000        6.357003         1    ;  uncertainty k = 0.547606
        11        12        16        17     9      180.000000       16.962734         2    ;  uncertainty k = 0.212954
        11        12        16        17     9        0.000000        0.267170         3    ;  uncertainty k = 0.202910
        11        12        16        17     9      180.000000       -1.190649         4    ;  uncertainty k = 0.124612
        11        12        16        18     9        0.000000        3.407849         1    ;  uncertainty k = 1.339110
        11        12        16        18     9      180.000000        8.996075         2    ;  uncertainty k = 0.412445
        11        12        16        18     9        0.000000        1.595044         3    ;  uncertainty k = 0.230309
        11        12        16        18     9      180.000000       -0.020267         4    ;  uncertainty k = 0.371981
        12        11        10        14     9        0.000000       -0.736762         1    ;  uncertainty k = 0.633517
        12        11        10        14     9      180.000000        6.025413         2    ;  uncertainty k = 1.000861
        12        11        10        14     9        0.000000        0.435196         3    ;  uncertainty k = 0.297545
        12        11        10        14     9      180.000000       -1.170163         4    ;  uncertainty k = 0.204856
        12        11        10        41     9        0.000000        0.123161         1    ;  uncertainty k = 0.632773
        12        11        10        41     9      180.000000        0.836162         2    ;  uncertainty k = 0.434791
        12        11        10        41     9        0.000000        1.098159         3    ;  uncertainty k = 0.161086
        12        11        10        41     9      180.000000       -0.066245         4    ;  uncertainty k = 0.104331
        12        13        14        15     9        0.000000       -2.607419         1    ;  uncertainty k = 0.995424
        12        13        14        15     9      180.000000        0.022076         2    ;  uncertainty k = 0.727033
        12        13        14        15     9        0.000000        1.612970         3    ;  uncertainty k = 0.235290
        12        13        14        15     9      180.000000       -0.185713         4    ;  uncertainty k = 0.112586
        12        13        14        46     9        0.000000        0.123160         1    ;  uncertainty k = 0.632774
        12        13        14        46     9      180.000000        0.836161         2    ;  uncertainty k = 0.434791
        12        13        14        46     9        0.000000        1.098159         3    ;  uncertainty k = 0.161086
        12        13        14        46     9      180.000000       -0.066245         4    ;  uncertainty k = 0.104331
        12        16        18        19     9        0.000000        1.851367         1    ;  uncertainty k = 1.259576
        12        16        18        19     9      180.000000        5.752965         2    ;  uncertainty k = 0.175508
        12        16        18        19     9        0.000000        0.162215         3    ;  uncertainty k = 0.318225
        12        16        18        19     9      180.000000        0.484794         4    ;  uncertainty k = 0.155871
        12        16        18        24     9        0.000000        3.709916         1    ;  uncertainty k = 1.132205
        12        16        18        24     9      180.000000        5.907216         2    ;  uncertainty k = 0.295098
        12        16        18        24     9        0.000000        0.162296         3    ;  uncertainty k = 0.106376
        12        16        18        24     9      180.000000        0.490410         4    ;  uncertainty k = 0.140372
        13        12        11        42     9        0.000000       -1.810377         1    ;  uncertainty k = 0.576098
        13        12        11        42     9      180.000000        1.086382         2    ;  uncertainty k = 0.426526
        13        12        11        42     9        0.000000        1.250141         3    ;  uncertainty k = 0.136647
        13        12        11        42     9      180.000000        0.301768         4    ;  uncertainty k = 0.117464
        13        12        11        43     9        0.000000       -1.810377         1    ;  uncertainty k = 0.576098
        13        12        11        43     9      180.000000        1.086382         2    ;  uncertainty k = 0.426526
        13        12        11        43     9        0.000000        1.250141         3    ;  uncertainty k = 0.136647
        13        12        11        43     9      180.000000        0.301768         4    ;  uncertainty k = 0.117464
        13        12        16        17     9        0.000000        6.357001         1    ;  uncertainty k = 0.547606
        13        12        16        17     9      180.000000       16.962734         2    ;  uncertainty k = 0.212955
        13        12        16        17     9        0.000000        0.267170         3    ;  uncertainty k = 0.202910
        13        12        16        17     9      180.000000       -1.190649         4    ;  uncertainty k = 0.124611
        13        12        16        18     9        0.000000        3.407847         1    ;  uncertainty k = 1.339110
        13        12        16        18     9      180.000000        8.996074         2    ;  uncertainty k = 0.412445
        13        12        16        18     9        0.000000        1.595043         3    ;  uncertainty k = 0.230310
        13        12        16        18     9      180.000000       -0.020268         4    ;  uncertainty k = 0.371981
        13        14        10        41     9        0.000000       -1.291633         1    ;  uncertainty k = 0.560343
        13        14        10        41     9      180.000000        0.594321         2    ;  uncertainty k = 0.368268
        13        14        10        41     9        0.000000        1.030260         3    ;  uncertainty k = 0.246250
        13        14        10        41     9      180.000000        0.081405         4    ;  uncertainty k = 0.059900
        13        14        15        47     9        0.000000       -0.670733         1    ;  uncertainty k = 0.233996
        13        14        15        47     9      180.000000       -0.386309         2    ;  uncertainty k = 0.258591
        13        14        15        47     9        0.000000        0.557638         3    ;  uncertainty k = 0.179621
        13        14        15        47     9      180.000000       -0.081826         4    ;  uncertainty k = 0.095492
        13        14        15        48     9        0.000000       -0.670733         1    ;  uncertainty k = 0.233996
        13        14        15        48     9      180.000000       -0.386309         2    ;  uncertainty k = 0.258591
        13        14        15        48     9        0.000000        0.557638         3    ;  uncertainty k = 0.179621
        13        14        15        48     9      180.000000       -0.081826         4    ;  uncertainty k = 0.095492
        14        10         9        39     9        0.000000        0.646621         1    ;  uncertainty k = 0.517781
        14        10         9        39     9      180.000000       -1.099689         2    ;  uncertainty k = 0.743823
        14        10         9        39     9        0.000000       -0.334778         3    ;  uncertainty k = 0.213644
        14        10         9        39     9      180.000000       -0.018734         4    ;  uncertainty k = 0.206091
        14        10         9        40     9        0.000000        0.646621         1    ;  uncertainty k = 0.517781
        14        10         9        40     9      180.000000       -1.099689         2    ;  uncertainty k = 0.743823
        14        10         9        40     9        0.000000       -0.334778         3    ;  uncertainty k = 0.213644
        14        10         9        40     9      180.000000       -0.018734         4    ;  uncertainty k = 0.206091
        14        10        11        42     9        0.000000        0.480411         1    ;  uncertainty k = 0.492791
        14        10        11        42     9      180.000000       -1.104495         2    ;  uncertainty k = 0.672328
        14        10        11        42     9        0.000000       -0.270073         3    ;  uncertainty k = 0.170671
        14        10        11        42     9      180.000000       -0.013161         4    ;  uncertainty k = 0.174221
        14        10        11        43     9        0.000000        0.480411         1    ;  uncertainty k = 0.492791
        14        10        11        43     9      180.000000       -1.104495         2    ;  uncertainty k = 0.672328
        14        10        11        43     9        0.000000       -0.270073         3    ;  uncertainty k = 0.170671
        14        10        11        43     9      180.000000       -0.013161         4    ;  uncertainty k = 0.174221
        14        13        12        16     9        0.000000       -0.209380         1    ;  uncertainty k = 0.966459
        14        13        12        16     9      180.000000       -0.541701         2    ;  uncertainty k = 0.373894
        14        13        12        16     9        0.000000        0.202801         3    ;  uncertainty k = 0.362931
        14        13        12        16     9      180.000000        0.702311         4    ;  uncertainty k = 0.132281
        15         8         9        39     9        0.000000       -2.106813         1    ;  uncertainty k = 0.722682
        15         8         9        39     9      180.000000        1.271152         2    ;  uncertainty k = 0.391418
        15         8         9        39     9        0.000000        1.144989         3    ;  uncertainty k = 0.081016
        15         8         9        39     9      180.000000        0.249969         4    ;  uncertainty k = 0.124009
        15         8         9        40     9        0.000000       -2.106813         1    ;  uncertainty k = 0.722682
        15         8         9        40     9      180.000000        1.271152         2    ;  uncertainty k = 0.391418
        15         8         9        40     9        0.000000        1.144989         3    ;  uncertainty k = 0.081016
        15         8         9        40     9      180.000000        0.249969         4    ;  uncertainty k = 0.124009
        15        14        10        41     9        0.000000       -1.223110         1    ;  uncertainty k = 0.611378
        15        14        10        41     9      180.000000        0.489635         2    ;  uncertainty k = 0.414979
        15        14        10        41     9        0.000000        0.997353         3    ;  uncertainty k = 0.241669
        15        14        10        41     9      180.000000        0.066778         4    ;  uncertainty k = 0.087125
        15        14        13        44     9        0.000000       -0.498818         1    ;  uncertainty k = 0.107248
        15        14        13        44     9      180.000000       -0.409705         2    ;  uncertainty k = 0.197166
        15        14        13        44     9        0.000000        0.564544         3    ;  uncertainty k = 0.186998
        15        14        13        44     9      180.000000       -0.072177         4    ;  uncertainty k = 0.062323
        15        14        13        45     9        0.000000       -0.498818         1    ;  uncertainty k = 0.107248
        15        14        13        45     9      180.000000       -0.409705         2    ;  uncertainty k = 0.197166
        15        14        13        45     9        0.000000        0.564544         3    ;  uncertainty k = 0.186998
        15        14        13        45     9      180.000000       -0.072177         4    ;  uncertainty k = 0.062323
        16        12        11        42     9        0.000000        1.416105         1    ;  uncertainty k = 0.719804
        16        12        11        42     9      180.000000        0.065610         2    ;  uncertainty k = 0.093474
        16        12        11        42     9        0.000000        0.002232         3    ;  uncertainty k = 0.089343
        16        12        11        42     9      180.000000        0.277826         4    ;  uncertainty k = 0.071341
        16        12        11        43     9        0.000000        1.416105         1    ;  uncertainty k = 0.719804
        16        12        11        43     9      180.000000        0.065610         2    ;  uncertainty k = 0.093474
        16        12        11        43     9        0.000000        0.002232         3    ;  uncertainty k = 0.089343
        16        12        11        43     9      180.000000        0.277826         4    ;  uncertainty k = 0.071341
        16        12        13        44     9        0.000000        1.416105         1    ;  uncertainty k = 0.719804
        16        12        13        44     9      180.000000        0.065610         2    ;  uncertainty k = 0.093472
        16        12        13        44     9        0.000000        0.002232         3    ;  uncertainty k = 0.089343
        16        12        13        44     9      180.000000        0.277826         4    ;  uncertainty k = 0.071341
        16        12        13        45     9        0.000000        1.416105         1    ;  uncertainty k = 0.719804
        16        12        13        45     9      180.000000        0.065610         2    ;  uncertainty k = 0.093472
        16        12        13        45     9        0.000000        0.002232         3    ;  uncertainty k = 0.089343
        16        12        13        45     9      180.000000        0.277826         4    ;  uncertainty k = 0.071341
        16        18        19        20     9        0.000000        0.086680         1    ;  uncertainty k = 0.322670
        16        18        19        20     9      180.000000       11.407953         2    ;  uncertainty k = 0.599565
        16        18        19        20     9        0.000000        1.385161         3    ;  uncertainty k = 0.187005
        16        18        19        20     9      180.000000        1.483635         4    ;  uncertainty k = 0.318096
        16        18        19        21     9        0.000000        0.114462         1    ;  uncertainty k = 0.659063
        16        18        19        21     9      180.000000        6.312817         2    ;  uncertainty k = 0.577136
        16        18        19        21     9        0.000000        1.356865         3    ;  uncertainty k = 0.282275
        16        18        19        21     9      180.000000        1.940646         4    ;  uncertainty k = 0.196893
        16        18        24        23     9        0.000000        0.266109         1    ;  uncertainty k = 0.262230
        16        18        24        23     9      180.000000        6.791976         2    ;  uncertainty k = 0.556220
        16        18        24        23     9        0.000000        1.305735         3    ;  uncertainty k = 0.332052
        16        18        24        23     9      180.000000        1.750369         4    ;  uncertainty k = 0.249436
        16        18        24        25     9        0.000000       -0.079088         1    ;  uncertainty k = 0.890587
        16        18        24        25     9      180.000000       10.037557         2    ;  uncertainty k = 0.622174
        16        18        24        25     9        0.000000        1.315712         3    ;  uncertainty k = 0.504290
        16        18        24        25     9      180.000000        1.286094         4    ;  uncertainty k = 0.361801
        17        16        18        19     9        0.000000       -1.928785         1    ;  uncertainty k = 0.969843
        17        16        18        19     9      180.000000        5.038791         2    ;  uncertainty k = 0.443316
        17        16        18        19     9        0.000000        0.869540         3    ;  uncertainty k = 0.424298
        17        16        18        19     9      180.000000        0.459984         4    ;  uncertainty k = 0.229979
        17        16        18        24     9        0.000000       -3.997731         1    ;  uncertainty k = 0.906468
        17        16        18        24     9      180.000000        5.945518         2    ;  uncertainty k = 0.542758
        17        16        18        24     9        0.000000        0.551178         3    ;  uncertainty k = 0.549645
        17        16        18        24     9      180.000000        0.513462         4    ;  uncertainty k = 0.329406
        18        19        21        22     9        0.000000        0.011529         1    ;  uncertainty k = 0.194930
        18        19        21        22     9      180.000000        8.787238         2    ;  uncertainty k = 0.361867
        18        19        21        22     9        0.000000        0.106727         3    ;  uncertainty k = 0.344316
        18        19        21        22     9      180.000000        1.205900         4    ;  uncertainty k = 0.276948
        18        19        21        49     9        0.000000       -0.168918         1    ;  uncertainty k = 0.390695
        18        19        21        49     9      180.000000        5.695522         2    ;  uncertainty k = 0.674905
        18        19        21        49     9        0.000000        1.129293         3    ;  uncertainty k = 0.356557
        18        19        21        49     9      180.000000        1.505167         4    ;  uncertainty k = 0.216214
        18        24        23        22     9        0.000000       -0.242508         1    ;  uncertainty k = 0.315737
        18        24        23        22     9      180.000000        9.681246         2    ;  uncertainty k = 0.496020
        18        24        23        22     9        0.000000        0.240132         3    ;  uncertainty k = 0.161668
        18        24        23        22     9      180.000000        1.271249         4    ;  uncertainty k = 0.330409
        18        24        23        51     9        0.000000       -0.007148         1    ;  uncertainty k = 0.345797
        18        24        23        51     9      180.000000        6.393420         2    ;  uncertainty k = 0.363299
        18        24        23        51     9        0.000000        1.235598         3    ;  uncertainty k = 0.195907
        18        24        23        51     9      180.000000        1.608512         4    ;  uncertainty k = 0.191460
        18        24        25        26     9        0.000000       -1.535069         1    ;  uncertainty k = 0.563416
        18        24        25        26     9      180.000000        4.499715         2    ;  uncertainty k = 0.535585
        18        24        25        26     9        0.000000        0.637687         3    ;  uncertainty k = 0.351002
        18        24        25        26     9      180.000000       -0.090463         4    ;  uncertainty k = 0.183190
        18        24        25        29     9        0.000000       -1.535069         1    ;  uncertainty k = 0.563416
        18        24        25        29     9      180.000000        4.499715         2    ;  uncertainty k = 0.535585
        18        24        25        29     9        0.000000        0.637687         3    ;  uncertainty k = 0.351002
        18        24        25        29     9      180.000000       -0.090463         4    ;  uncertainty k = 0.183190
        19        18        24        23     9        0.000000       -0.242351         1    ;  uncertainty k = 0.420152
        19        18        24        23     9      180.000000        6.983637         2    ;  uncertainty k = 0.869640
        19        18        24        23     9        0.000000        0.325219         3    ;  uncertainty k = 0.349953
        19        18        24        23     9      180.000000        1.307286         4    ;  uncertainty k = 0.335099
        19        18        24        25     9        0.000000        0.337460         1    ;  uncertainty k = 0.391009
        19        18        24        25     9      180.000000       10.376661         2    ;  uncertainty k = 0.372710
        19        18        24        25     9        0.000000        1.330823         3    ;  uncertainty k = 0.417773
        19        18        24        25     9      180.000000        1.431413         4    ;  uncertainty k = 0.199546
        19        21        22        23     9        0.000000       -0.033963         1    ;  uncertainty k = 0.110226
        19        21        22        23     9      180.000000       13.984025         2    ;  uncertainty k = 0.340845
        19        21        22        23     9        0.000000       -1.042557         3    ;  uncertainty k = 0.357764
        19        21        22        23     9      180.000000        0.802609         4    ;  uncertainty k = 0.247483
        19        21        22        50     9        0.000000       -0.104379         1    ;  uncertainty k = 0.141872
        19        21        22        50     9      180.000000        7.264410         2    ;  uncertainty k = 0.340044
        19        21        22        50     9        0.000000        1.287730         3    ;  uncertainty k = 0.202339
        19        21        22        50     9      180.000000        1.653500         4    ;  uncertainty k = 0.150967
        20        19        18        24     9        0.000000        0.033254         1    ;  uncertainty k = 0.304862
        20        19        18        24     9      180.000000       11.302610         2    ;  uncertainty k = 0.302059
        20        19        18        24     9        0.000000        1.679241         3    ;  uncertainty k = 0.164696
        20        19        18        24     9      180.000000        1.555515         4    ;  uncertainty k = 0.157671
        20        19        21        22     9        0.000000       -0.080232         1    ;  uncertainty k = 0.461474
        20        19        21        22     9      180.000000       13.203682         2    ;  uncertainty k = 0.340325
        20        19        21        22     9        0.000000        1.295972         3    ;  uncertainty k = 0.165134
        20        19        21        22     9      180.000000        1.523069         4    ;  uncertainty k = 0.233966
        20        19        21        49     9        0.000000       -0.128834         1    ;  uncertainty k = 0.456012
        20        19        21        49     9      180.000000        9.556552         2    ;  uncertainty k = 0.491147
        20        19        21        49     9        0.000000        0.767278         3    ;  uncertainty k = 0.273034
        20        19        21        49     9      180.000000        1.024642         4    ;  uncertainty k = 0.200947
        21        19        18        24     9        0.000000       -0.325541         1    ;  uncertainty k = 0.355388
        21        19        18        24     9      180.000000        6.052960         2    ;  uncertainty k = 0.864094
        21        19        18        24     9        0.000000        0.684668         3    ;  uncertainty k = 0.181781
        21        19        18        24     9      180.000000        1.492448         4    ;  uncertainty k = 0.353261
        21        22        23        24     9        0.000000       -0.096416         1    ;  uncertainty k = 0.180639
        21        22        23        24     9      180.000000       13.532949         2    ;  uncertainty k = 0.268821
        21        22        23        24     9        0.000000       -0.934273         3    ;  uncertainty k = 0.410646
        21        22        23        24     9      180.000000        0.824229         4    ;  uncertainty k = 0.239882
        21        22        23        51     9        0.000000        0.090918         1    ;  uncertainty k = 0.138952
        21        22        23        51     9      180.000000        7.803070         2    ;  uncertainty k = 0.340548
        21        22        23        51     9        0.000000        1.340932         3    ;  uncertainty k = 0.288750
        21        22        23        51     9      180.000000        1.895629         4    ;  uncertainty k = 0.190611
        22        23        24        25     9        0.000000        0.460449         1    ;  uncertainty k = 0.322983
        22        23        24        25     9      180.000000       11.387678         2    ;  uncertainty k = 0.346993
        22        23        24        25     9        0.000000        0.982542         3    ;  uncertainty k = 0.164036
        22        23        24        25     9      180.000000        1.624026         4    ;  uncertainty k = 0.138288
        23        22        21        49     9        0.000000        0.058868         1    ;  uncertainty k = 0.276257
        23        22        21        49     9      180.000000        7.716329         2    ;  uncertainty k = 0.326791
        23        22        21        49     9        0.000000        1.437490         3    ;  uncertainty k = 0.272563
        23        22        21        49     9      180.000000        1.759669         4    ;  uncertainty k = 0.126329
        23        24        25        26     9        0.000000        2.394481         1    ;  uncertainty k = 0.740964
        23        24        25        26     9      180.000000        4.329586         2    ;  uncertainty k = 0.263950
        23        24        25        26     9        0.000000        0.391713         3    ;  uncertainty k = 0.190597
        23        24        25        26     9      180.000000        0.083730         4    ;  uncertainty k = 0.150415
        23        24        25        29     9        0.000000        2.394481         1    ;  uncertainty k = 0.740964
        23        24        25        29     9      180.000000        4.329586         2    ;  uncertainty k = 0.263950
        23        24        25        29     9        0.000000        0.391713         3    ;  uncertainty k = 0.190597
        23        24        25        29     9      180.000000        0.083730         4    ;  uncertainty k = 0.150415
        24        23        22        50     9        0.000000       -0.010723         1    ;  uncertainty k = 0.237400
        24        23        22        50     9      180.000000        7.958978         2    ;  uncertainty k = 0.442749
        24        23        22        50     9        0.000000        1.209101         3    ;  uncertainty k = 0.164443
        24        23        22        50     9      180.000000        1.723739         4    ;  uncertainty k = 0.144208
        24        25        26        27     9        0.000000        0.797559         1    ;  uncertainty k = 2.309877
        24        25        26        27     9      180.000000       14.114446         2    ;  uncertainty k = 0.418682
        24        25        26        27     9        0.000000        1.402880         3    ;  uncertainty k = 0.442527
        24        25        26        27     9      180.000000        0.112613         4    ;  uncertainty k = 0.206946
        24        25        29        28     9        0.000000        0.797559         1    ;  uncertainty k = 2.309877
        24        25        29        28     9      180.000000       14.114446         2    ;  uncertainty k = 0.418682
        24        25        29        28     9        0.000000        1.402880         3    ;  uncertainty k = 0.442527
        24        25        29        28     9      180.000000        0.112613         4    ;  uncertainty k = 0.206946
        25        24        23        51     9        0.000000        0.135211         1    ;  uncertainty k = 0.398577
        25        24        23        51     9      180.000000        8.519176         2    ;  uncertainty k = 0.273746
        25        24        23        51     9        0.000000        0.803950         3    ;  uncertainty k = 0.224881
        25        24        23        51     9      180.000000        1.348903         4    ;  uncertainty k = 0.152778
        25        26        27        28     9        0.000000        0.015899         1    ;  uncertainty k = 0.518603
        25        26        27        28     9      180.000000       24.370143         2    ;  uncertainty k = 0.366584
        25        26        27        28     9        0.000000       -9.715998         3    ;  uncertainty k = 1.915613
        25        26        27        28     9      180.000000        2.426696         4    ;  uncertainty k = 0.655510
        25        26        27        52     9        0.000000        0.232294         1    ;  uncertainty k = 0.741580
        25        26        27        52     9      180.000000       22.028694         2    ;  uncertainty k = 0.487024
        25        26        27        52     9        0.000000        1.455895         3    ;  uncertainty k = 0.397708
        25        26        27        52     9      180.000000        1.220382         4    ;  uncertainty k = 0.604170
        25        29        28        27     9        0.000000        0.015899         1    ;  uncertainty k = 0.518603
        25        29        28        27     9      180.000000       24.370143         2    ;  uncertainty k = 0.366584
        25        29        28        27     9        0.000000       -9.715998         3    ;  uncertainty k = 1.915613
        25        29        28        27     9      180.000000        2.426696         4    ;  uncertainty k = 0.655510
        25        29        28        53     9        0.000000        0.232294         1    ;  uncertainty k = 0.741580
        25        29        28        53     9      180.000000       22.028694         2    ;  uncertainty k = 0.487024
        25        29        28        53     9        0.000000        1.455895         3    ;  uncertainty k = 0.397708
        25        29        28        53     9      180.000000        1.220382         4    ;  uncertainty k = 0.604170
        26        25        29        28     9        0.000000       -0.822391         1    ;  uncertainty k = 0.769863
        26        25        29        28     9      180.000000       22.038729         2    ;  uncertainty k = 0.271382
        26        25        29        28     9        0.000000       -8.305140         3    ;  uncertainty k = 1.269833
        26        25        29        28     9      180.000000        1.298759         4    ;  uncertainty k = 0.596553
        26        27        28        29     9        0.000000       -0.480158         1    ;  uncertainty k = 0.926462
        26        27        28        29     9      180.000000       16.735216         2    ;  uncertainty k = 1.309662
        26        27        28        29     9        0.000000      -12.155219         3    ;  uncertainty k = 1.939945
        26        27        28        29     9      180.000000        1.991293         4    ;  uncertainty k = 0.750423
        26        27        28        53     9        0.000000        0.154897         1    ;  uncertainty k = 0.970262
        26        27        28        53     9      180.000000       11.842300         2    ;  uncertainty k = 0.614370
        26        27        28        53     9        0.000000        0.922189         3    ;  uncertainty k = 0.757887
        26        27        28        53     9      180.000000        0.630945         4    ;  uncertainty k = 0.172002
        27        26        25        29     9        0.000000       -0.822391         1    ;  uncertainty k = 0.769863
        27        26        25        29     9      180.000000       22.038729         2    ;  uncertainty k = 0.271382
        27        26        25        29     9        0.000000       -8.305140         3    ;  uncertainty k = 1.269833
        27        26        25        29     9      180.000000        1.298759         4    ;  uncertainty k = 0.596553
        29        28        27        52     9        0.000000        0.154897         1    ;  uncertainty k = 0.970262
        29        28        27        52     9      180.000000       11.842300         2    ;  uncertainty k = 0.614370
        29        28        27        52     9        0.000000        0.922189         3    ;  uncertainty k = 0.757887
        29        28        27        52     9      180.000000        0.630945         4    ;  uncertainty k = 0.172002
        30         4         3        38     9        0.000000       -0.063933         1    ;  uncertainty k = 0.809772
        30         4         3        38     9      180.000000        6.886133         2    ;  uncertainty k = 0.878623
        30         4         3        38     9        0.000000        0.903667         3    ;  uncertainty k = 0.187097
        30         4         3        38     9      180.000000        0.960448         4    ;  uncertainty k = 0.183697
        30        32        33        54     9        0.000000        0.344730         1    ;  uncertainty k = 0.242265
        30        32        33        54     9      180.000000       -0.100077         2    ;  uncertainty k = 0.163368
        30        32        33        54     9        0.000000        0.185148         3    ;  uncertainty k = 0.086855
        30        32        33        54     9      180.000000        0.263487         4    ;  uncertainty k = 0.040227
        30        32        33        55     9        0.000000        0.344730         1    ;  uncertainty k = 0.242265
        30        32        33        55     9      180.000000       -0.100077         2    ;  uncertainty k = 0.163368
        30        32        33        55     9        0.000000        0.185148         3    ;  uncertainty k = 0.086855
        30        32        33        55     9      180.000000        0.263487         4    ;  uncertainty k = 0.040227
        30        32        33        56     9        0.000000        0.344730         1    ;  uncertainty k = 0.242265
        30        32        33        56     9      180.000000       -0.100077         2    ;  uncertainty k = 0.163368
        30        32        33        56     9        0.000000        0.185148         3    ;  uncertainty k = 0.086855
        30        32        33        56     9      180.000000        0.263487         4    ;  uncertainty k = 0.040227
        30        32        34        57     9        0.000000        0.344730         1    ;  uncertainty k = 0.242265
        30        32        34        57     9      180.000000       -0.100077         2    ;  uncertainty k = 0.163368
        30        32        34        57     9        0.000000        0.185148         3    ;  uncertainty k = 0.086855
        30        32        34        57     9      180.000000        0.263487         4    ;  uncertainty k = 0.040227
        30        32        34        58     9        0.000000        0.344730         1    ;  uncertainty k = 0.242265
        30        32        34        58     9      180.000000       -0.100077         2    ;  uncertainty k = 0.163368
        30        32        34        58     9        0.000000        0.185148         3    ;  uncertainty k = 0.086855
        30        32        34        58     9      180.000000        0.263487         4    ;  uncertainty k = 0.040227
        30        32        34        59     9        0.000000        0.344730         1    ;  uncertainty k = 0.242265
        30        32        34        59     9      180.000000       -0.100077         2    ;  uncertainty k = 0.163368
        30        32        34        59     9        0.000000        0.185148         3    ;  uncertainty k = 0.086855
        30        32        34        59     9      180.000000        0.263487         4    ;  uncertainty k = 0.040227
        31        30        32        33     9        0.000000        5.354634         1    ;  uncertainty k = 0.982044
        31        30        32        33     9      180.000000       18.510426         2    ;  uncertainty k = 0.110267
        31        30        32        33     9        0.000000       -0.507283         3    ;  uncertainty k = 0.291946
        31        30        32        33     9      180.000000       -0.908877         4    ;  uncertainty k = 0.078700
        31        30        32        34     9        0.000000        5.354634         1    ;  uncertainty k = 0.982044
        31        30        32        34     9      180.000000       18.510426         2    ;  uncertainty k = 0.110267
        31        30        32        34     9        0.000000       -0.507283         3    ;  uncertainty k = 0.291946
        31        30        32        34     9      180.000000       -0.908877         4    ;  uncertainty k = 0.078700
        33        32        34        57     9        0.000000       -0.699899         1    ;  uncertainty k = 0.347802
        33        32        34        57     9      180.000000       -0.982500         2    ;  uncertainty k = 0.184932
        33        32        34        57     9        0.000000        1.391150         3    ;  uncertainty k = 0.048088
        33        32        34        57     9      180.000000        0.154726         4    ;  uncertainty k = 0.028884
        33        32        34        58     9        0.000000       -0.699899         1    ;  uncertainty k = 0.347802
        33        32        34        58     9      180.000000       -0.982500         2    ;  uncertainty k = 0.184932
        33        32        34        58     9        0.000000        1.391150         3    ;  uncertainty k = 0.048088
        33        32        34        58     9      180.000000        0.154726         4    ;  uncertainty k = 0.028884
        33        32        34        59     9        0.000000       -0.699899         1    ;  uncertainty k = 0.347802
        33        32        34        59     9      180.000000       -0.982500         2    ;  uncertainty k = 0.184932
        33        32        34        59     9        0.000000        1.391150         3    ;  uncertainty k = 0.048088
        33        32        34        59     9      180.000000        0.154726         4    ;  uncertainty k = 0.028884
        34        32        33        54     9        0.000000       -0.699899         1    ;  uncertainty k = 0.347802
        34        32        33        54     9      180.000000       -0.982500         2    ;  uncertainty k = 0.184932
        34        32        33        54     9        0.000000        1.391150         3    ;  uncertainty k = 0.048088
        34        32        33        54     9      180.000000        0.154726         4    ;  uncertainty k = 0.028884
        34        32        33        55     9        0.000000       -0.699899         1    ;  uncertainty k = 0.347802
        34        32        33        55     9      180.000000       -0.982500         2    ;  uncertainty k = 0.184932
        34        32        33        55     9        0.000000        1.391150         3    ;  uncertainty k = 0.048088
        34        32        33        55     9      180.000000        0.154726         4    ;  uncertainty k = 0.028884
        34        32        33        56     9        0.000000       -0.699899         1    ;  uncertainty k = 0.347802
        34        32        33        56     9      180.000000       -0.982500         2    ;  uncertainty k = 0.184932
        34        32        33        56     9        0.000000        1.391150         3    ;  uncertainty k = 0.048088
        34        32        33        56     9      180.000000        0.154726         4    ;  uncertainty k = 0.028884
        39         9        10        41     9        0.000000        0.359872         1    ;  uncertainty k = 0.316166
        39         9        10        41     9      180.000000       -0.360044         2    ;  uncertainty k = 0.197279
        39         9        10        41     9        0.000000        0.364903         3    ;  uncertainty k = 0.128583
        39         9        10        41     9      180.000000       -0.036803         4    ;  uncertainty k = 0.081429
        40         9        10        41     9        0.000000        0.359872         1    ;  uncertainty k = 0.316166
        40         9        10        41     9      180.000000       -0.360044         2    ;  uncertainty k = 0.197279
        40         9        10        41     9        0.000000        0.364903         3    ;  uncertainty k = 0.128583
        40         9        10        41     9      180.000000       -0.036803         4    ;  uncertainty k = 0.081429
        41        10        11        42     9        0.000000        0.423998         1    ;  uncertainty k = 0.297943
        41        10        11        42     9      180.000000       -0.322771         2    ;  uncertainty k = 0.253711
        41        10        11        42     9        0.000000        0.343158         3    ;  uncertainty k = 0.128710
        41        10        11        42     9      180.000000       -0.041305         4    ;  uncertainty k = 0.061986
        41        10        11        43     9        0.000000        0.423998         1    ;  uncertainty k = 0.297943
        41        10        11        43     9      180.000000       -0.322771         2    ;  uncertainty k = 0.253711
        41        10        11        43     9        0.000000        0.343158         3    ;  uncertainty k = 0.128710
        41        10        11        43     9      180.000000       -0.041305         4    ;  uncertainty k = 0.061986
        41        10        14        46     9        0.000000        3.534566         1    ;  uncertainty k = 1.183407
        41        10        14        46     9      180.000000       -0.219654         2    ;  uncertainty k = 0.641097
        41        10        14        46     9        0.000000        0.578188         3    ;  uncertainty k = 0.579178
        41        10        14        46     9      180.000000        0.212498         4    ;  uncertainty k = 0.291708
        44        13        14        46     9        0.000000        0.424000         1    ;  uncertainty k = 0.297943
        44        13        14        46     9      180.000000       -0.322771         2    ;  uncertainty k = 0.253710
        44        13        14        46     9        0.000000        0.343158         3    ;  uncertainty k = 0.128710
        44        13        14        46     9      180.000000       -0.041305         4    ;  uncertainty k = 0.061986
        45        13        14        46     9        0.000000        0.424000         1    ;  uncertainty k = 0.297943
        45        13        14        46     9      180.000000       -0.322771         2    ;  uncertainty k = 0.253710
        45        13        14        46     9        0.000000        0.343158         3    ;  uncertainty k = 0.128710
        45        13        14        46     9      180.000000       -0.041305         4    ;  uncertainty k = 0.061986
        46        14        15        47     9        0.000000        0.359873         1    ;  uncertainty k = 0.316165
        46        14        15        47     9      180.000000       -0.360044         2    ;  uncertainty k = 0.197281
        46        14        15        47     9        0.000000        0.364903         3    ;  uncertainty k = 0.128582
        46        14        15        47     9      180.000000       -0.036803         4    ;  uncertainty k = 0.081429
        46        14        15        48     9        0.000000        0.359873         1    ;  uncertainty k = 0.316165
        46        14        15        48     9      180.000000       -0.360044         2    ;  uncertainty k = 0.197281
        46        14        15        48     9        0.000000        0.364903         3    ;  uncertainty k = 0.128582
        46        14        15        48     9      180.000000       -0.036803         4    ;  uncertainty k = 0.081429
        49        21        22        50     9        0.000000       -0.020811         1    ;  uncertainty k = 0.168739
        49        21        22        50     9      180.000000        7.628630         2    ;  uncertainty k = 0.494067
        49        21        22        50     9        0.000000       -0.419007         3    ;  uncertainty k = 0.338955
        49        21        22        50     9      180.000000        0.009969         4    ;  uncertainty k = 0.203192
        50        22        23        51     9        0.000000        0.041837         1    ;  uncertainty k = 0.123335
        50        22        23        51     9      180.000000        7.941958         2    ;  uncertainty k = 0.372063
        50        22        23        51     9        0.000000       -0.460822         3    ;  uncertainty k = 0.327229
        50        22        23        51     9      180.000000        0.152785         4    ;  uncertainty k = 0.182743
        52        27        28        53     9        0.000000       -0.942648         1    ;  uncertainty k = 1.117582
        52        27        28        53     9      180.000000        4.272735         2    ;  uncertainty k = 0.760818
        52        27        28        53     9        0.000000        1.314863         3    ;  uncertainty k = 0.353594
        52        27        28        53     9      180.000000        0.150448         4    ;  uncertainty k = 0.159865

[ dihedrals ] ; impropers
;       ai        aj        ak        al funct           phase               k        pn
         2         1         3         7     4      180.000000       30.783573         2    ;  uncertainty k = 0.059491
         2         3         7         1     4      180.000000       30.783573         2    ;  uncertainty k = 0.059491
         2         7         1         3     4      180.000000       30.783573         2    ;  uncertainty k = 0.059491
         3         2         4        38     4      180.000000        1.948387         2    ;  uncertainty k = 0.413664
         3         4        38         2     4      180.000000        1.948387         2    ;  uncertainty k = 0.413664
         3        38         2         4     4      180.000000        1.948387         2    ;  uncertainty k = 0.413664
         4         3         5        30     4      180.000000       22.699484         2    ;  uncertainty k = 0.201283
         4         5        30         3     4      180.000000       22.699484         2    ;  uncertainty k = 0.201283
         4        30         3         5     4      180.000000       22.699484         2    ;  uncertainty k = 0.201283
         6         5         7         8     4      180.000000       42.187313         2    ;  uncertainty k = 0.058164
         6         7         8         5     4      180.000000       42.187313         2    ;  uncertainty k = 0.058164
         6         8         5         7     4      180.000000       42.187313         2    ;  uncertainty k = 0.058164
         8         6         9        15     4      180.000000        0.180133         2    ;  uncertainty k = 0.402789
         8         9        15         6     4      180.000000        0.180133         2    ;  uncertainty k = 0.402789
         8        15         6         9     4      180.000000        0.180133         2    ;  uncertainty k = 0.402789
        16        12        17        18     4      180.000000       52.212280         2    ;  uncertainty k = 0.071533
        16        17        18        12     4      180.000000       52.212280         2    ;  uncertainty k = 0.071533
        16        18        12        17     4      180.000000       52.212280         2    ;  uncertainty k = 0.071533
        18        16        19        24     4      180.000000        9.307072         2    ;  uncertainty k = 0.434424
        18        19        24        16     4      180.000000        9.307072         2    ;  uncertainty k = 0.434424
        18        24        16        19     4      180.000000        9.307072         2    ;  uncertainty k = 0.434424
        19        18        20        21     4      180.000000       15.115266         2    ;  uncertainty k = 0.210077
        19        20        21        18     4      180.000000       15.115266         2    ;  uncertainty k = 0.210077
        19        21        18        20     4      180.000000       15.115266         2    ;  uncertainty k = 0.210077
        21        19        22        49     4      180.000000        2.461870         2    ;  uncertainty k = 0.103991
        21        22        49        19     4      180.000000        2.461870         2    ;  uncertainty k = 0.103991
        21        49        19        22     4      180.000000        2.461870         2    ;  uncertainty k = 0.103991
        22        21        23        50     4      180.000000        4.937369         2    ;  uncertainty k = 0.112088
        22        23        50        21     4      180.000000        4.937369         2    ;  uncertainty k = 0.112088
        22        50        21        23     4      180.000000        4.937369         2    ;  uncertainty k = 0.112088
        23        22        24        51     4      180.000000        2.847064         2    ;  uncertainty k = 0.193191
        23        24        51        22     4      180.000000        2.847064         2    ;  uncertainty k = 0.193191
        23        51        22        24     4      180.000000        2.847064         2    ;  uncertainty k = 0.193191
        24        18        23        25     4      180.000000       12.584197         2    ;  uncertainty k = 0.129690
        24        23        25        18     4      180.000000       12.584197         2    ;  uncertainty k = 0.129690
        24        25        18        23     4      180.000000       12.584197         2    ;  uncertainty k = 0.129690
        27        26        28        52     4      180.000000        0.414726         2    ;  uncertainty k = 0.408832
        27        28        52        26     4      180.000000        0.414726         2    ;  uncertainty k = 0.408832
        27        52        26        28     4      180.000000        0.414726         2    ;  uncertainty k = 0.408832
        28        27        29        53     4      180.000000        0.414726         2    ;  uncertainty k = 0.408832
        28        29        53        27     4      180.000000        0.414726         2    ;  uncertainty k = 0.408832
        28        53        27        29     4      180.000000        0.414726         2    ;  uncertainty k = 0.408832
        30         4        31        32     4      180.000000       46.199025         2    ;  uncertainty k = 0.062442
        30        31        32         4     4      180.000000       46.199025         2    ;  uncertainty k = 0.062442
        30        32         4        31     4      180.000000       46.199025         2    ;  uncertainty k = 0.062442

[ pairs ]
;       ai        aj funct
         1         4     1
         1         6     1
         1        38     1
         2         5     1
         2         8     1
         2        30     1
         3         6     1
         3        31     1
         3        32     1
         3        35     1
         3        36     1
         3        37     1
         4         7     1
         4         8     1
         4        33     1
         4        34     1
         5         9     1
         5        15     1
         5        31     1
         5        32     1
         5        38     1
         6        10     1
         6        14     1
         6        30     1
         6        39     1
         6        40     1
         6        47     1
         6        48     1
         7         9     1
         7        15     1
         7        35     1
         7        36     1
         7        37     1
         7        38     1
         8        11     1
         8        13     1
         8        41     1
         8        46     1
         9        12     1
         9        13     1
         9        42     1
         9        43     1
         9        46     1
         9        47     1
         9        48     1
        10        16     1
        10        44     1
        10        45     1
        10        47     1
        10        48     1
        11        15     1
        11        17     1
        11        18     1
        11        39     1
        11        40     1
        11        44     1
        11        45     1
        11        46     1
        12        15     1
        12        19     1
        12        24     1
        12        41     1
        12        46     1
        13        17     1
        13        18     1
        13        41     1
        13        42     1
        13        43     1
        13        47     1
        13        48     1
        14        16     1
        14        39     1
        14        40     1
        14        42     1
        14        43     1
        15        39     1
        15        40     1
        15        41     1
        15        44     1
        15        45     1
        16        20     1
        16        21     1
        16        23     1
        16        25     1
        16        42     1
        16        43     1
        16        44     1
        16        45     1
        17        19     1
        17        24     1
        18        22     1
        18        26     1
        18        29     1
        18        49     1
        18        51     1
        19        23     1
        19        25     1
        19        50     1
        20        22     1
        20        24     1
        20        49     1
        21        24     1
        21        51     1
        22        25     1
        23        26     1
        23        29     1
        23        49     1
        24        27     1
        24        28     1
        24        50     1
        25        51     1
        25        52     1
        25        53     1
        26        53     1
        29        52     1
        30        38     1
        30        54     1
        30        55     1
        30        56     1
        30        57     1
        30        58     1
        30        59     1
        31        33     1
        31        34     1
        33        57     1
        33        58     1
        33        59     1
        34        54     1
        34        55     1
        34        56     1
        39        41     1
        40        41     1
        41        42     1
        41        43     1
        41        46     1
        44        46     1
        45        46     1
        46        47     1
        46        48     1
        49        50     1
        50        51     1
        52        53     1
