; ITP file created by ByteFF-joint-25, 2025-07-14 11:28:35.872107

[ atomtypes ]
;name           bonded.type        at.num        mass        charge   ptype           sigma         epsilon
 c0bf                                   6      0.0000       0.00000       A     3.39770e-01     4.50966e-01    ;  uncertainty sigma = 0.000003, epsilon = 0.000600
 c1bf                                   6      0.0000       0.00000       A     3.31500e-01     4.12992e-01    ;  uncertainty sigma = 0.000014, epsilon = 0.000729
 n2bf                                   7      0.0000       0.00000       A     3.38406e-01     3.93694e-01    ;  uncertainty sigma = 0.000010, epsilon = 0.001173
 c3bf                                   6      0.0000       0.00000       A     3.31559e-01     4.13520e-01    ;  uncertainty sigma = 0.000018, epsilon = 0.000669
 n4bf                                   7      0.0000       0.00000       A     3.38406e-01     3.93694e-01    ;  uncertainty sigma = 0.000010, epsilon = 0.001173
 c5bf                                   6      0.0000       0.00000       A     3.31500e-01     4.12992e-01    ;  uncertainty sigma = 0.000014, epsilon = 0.000729
 c6bf                                   6      0.0000       0.00000       A     3.39770e-01     4.50966e-01    ;  uncertainty sigma = 0.000003, epsilon = 0.000600
 c7bf                                   6      0.0000       0.00000       A     3.31535e-01     4.13078e-01    ;  uncertainty sigma = 0.000008, epsilon = 0.001106
 c8bf                                   6      0.0000       0.00000       A     3.39772e-01     4.50763e-01    ;  uncertainty sigma = 0.000003, epsilon = 0.000562
 n9bf                                   7      0.0000       0.00000       A     3.18950e-01     8.99076e-01    ;  uncertainty sigma = 0.000052, epsilon = 0.003577
 c10bf                                  6      0.0000       0.00000       A     3.39774e-01     4.50953e-01    ;  uncertainty sigma = 0.000012, epsilon = 0.001229
 c11bf                                  6      0.0000       0.00000       A     3.39776e-01     4.51373e-01    ;  uncertainty sigma = 0.000009, epsilon = 0.000969
 c12bf                                  6      0.0000       0.00000       A     3.39784e-01     4.51219e-01    ;  uncertainty sigma = 0.000006, epsilon = 0.000696
 n13bf                                  7      0.0000       0.00000       A     3.18086e-01     6.84039e-01    ;  uncertainty sigma = 0.000014, epsilon = 0.001467
 c14bf                                  6      0.0000       0.00000       A     3.39784e-01     4.51219e-01    ;  uncertainty sigma = 0.000006, epsilon = 0.000696
 c15bf                                  6      0.0000       0.00000       A     3.39776e-01     4.51373e-01    ;  uncertainty sigma = 0.000009, epsilon = 0.000969
 c16bf                                  6      0.0000       0.00000       A     3.39774e-01     4.50953e-01    ;  uncertainty sigma = 0.000012, epsilon = 0.001229
 c17bf                                  6      0.0000       0.00000       A     3.31486e-01     4.13134e-01    ;  uncertainty sigma = 0.000026, epsilon = 0.002146
 o18bf                                  8      0.0000       0.00000       A     3.04851e-01     6.12019e-01    ;  uncertainty sigma = 0.000026, epsilon = 0.001020
 c19bf                                  6      0.0000       0.00000       A     3.31488e-01     4.12415e-01    ;  uncertainty sigma = 0.000034, epsilon = 0.001171
 c20bf                                  6      0.0000       0.00000       A     3.31513e-01     4.12834e-01    ;  uncertainty sigma = 0.000016, epsilon = 0.001291
 f21bf                                  9      0.0000       0.00000       A     3.03451e-01     3.47872e-01    ;  uncertainty sigma = 0.000029, epsilon = 0.000470
 c22bf                                  6      0.0000       0.00000       A     3.31522e-01     4.13335e-01    ;  uncertainty sigma = 0.000005, epsilon = 0.000662
 c23bf                                  6      0.0000       0.00000       A     3.31521e-01     4.13421e-01    ;  uncertainty sigma = 0.000006, epsilon = 0.000781
 c24bf                                  6      0.0000       0.00000       A     3.31510e-01     4.13240e-01    ;  uncertainty sigma = 0.000014, epsilon = 0.000923
 c25bf                                  6      0.0000       0.00000       A     3.31553e-01     4.13601e-01    ;  uncertainty sigma = 0.000013, epsilon = 0.001582
 n26bf                                  7      0.0000       0.00000       A     3.20569e-01     8.54049e-01    ;  uncertainty sigma = 0.000030, epsilon = 0.002792
 n27bf                                  7      0.0000       0.00000       A     3.38413e-01     3.93694e-01    ;  uncertainty sigma = 0.000010, epsilon = 0.000693
 c28bf                                  6      0.0000       0.00000       A     3.31537e-01     4.13587e-01    ;  uncertainty sigma = 0.000007, epsilon = 0.000835
 c29bf                                  6      0.0000       0.00000       A     3.31537e-01     4.13587e-01    ;  uncertainty sigma = 0.000007, epsilon = 0.000835
 n30bf                                  7      0.0000       0.00000       A     3.38413e-01     3.93694e-01    ;  uncertainty sigma = 0.000010, epsilon = 0.000693
 h31bf                                  1      0.0000       0.00000       A     2.60032e-01     8.66617e-02    ;  uncertainty sigma = 0.000008, epsilon = 0.000520
 h32bf                                  1      0.0000       0.00000       A     2.60032e-01     8.66617e-02    ;  uncertainty sigma = 0.000008, epsilon = 0.000520
 h33bf                                  1      0.0000       0.00000       A     2.60032e-01     8.66617e-02    ;  uncertainty sigma = 0.000008, epsilon = 0.000520
 h34bf                                  1      0.0000       0.00000       A     2.60032e-01     8.66617e-02    ;  uncertainty sigma = 0.000008, epsilon = 0.000520
 h35bf                                  1      0.0000       0.00000       A     2.60032e-01     8.66617e-02    ;  uncertainty sigma = 0.000008, epsilon = 0.000520
 h36bf                                  1      0.0000       0.00000       A     2.60032e-01     8.66617e-02    ;  uncertainty sigma = 0.000008, epsilon = 0.000520
 h37bf                                  1      0.0000       0.00000       A     2.60041e-01     8.67786e-02    ;  uncertainty sigma = 0.000007, epsilon = 0.000376
 h38bf                                  1      0.0000       0.00000       A     2.60041e-01     8.67786e-02    ;  uncertainty sigma = 0.000007, epsilon = 0.000376
 h39bf                                  1      0.0000       0.00000       A     2.60041e-01     8.67786e-02    ;  uncertainty sigma = 0.000007, epsilon = 0.000376
 h40bf                                  1      0.0000       0.00000       A     2.42199e-01     8.66324e-02    ;  uncertainty sigma = 0.000024, epsilon = 0.001250
 h41bf                                  1      0.0000       0.00000       A     2.42199e-01     8.66324e-02    ;  uncertainty sigma = 0.000024, epsilon = 0.001250
 h42bf                                  1      0.0000       0.00000       A     2.59994e-01     8.68892e-02    ;  uncertainty sigma = 0.000026, epsilon = 0.000553
 h43bf                                  1      0.0000       0.00000       A     2.42194e-01     8.66543e-02    ;  uncertainty sigma = 0.000021, epsilon = 0.000863
 h44bf                                  1      0.0000       0.00000       A     2.42194e-01     8.66543e-02    ;  uncertainty sigma = 0.000021, epsilon = 0.000863
 h45bf                                  1      0.0000       0.00000       A     2.42194e-01     8.66545e-02    ;  uncertainty sigma = 0.000021, epsilon = 0.000863
 h46bf                                  1      0.0000       0.00000       A     2.42194e-01     8.66545e-02    ;  uncertainty sigma = 0.000021, epsilon = 0.000863
 h47bf                                  1      0.0000       0.00000       A     2.59994e-01     8.68892e-02    ;  uncertainty sigma = 0.000026, epsilon = 0.000553
 h48bf                                  1      0.0000       0.00000       A     2.42199e-01     8.66324e-02    ;  uncertainty sigma = 0.000024, epsilon = 0.001250
 h49bf                                  1      0.0000       0.00000       A     2.42199e-01     8.66324e-02    ;  uncertainty sigma = 0.000024, epsilon = 0.001250
 h50bf                                  1      0.0000       0.00000       A     2.62565e-01     6.70682e-02    ;  uncertainty sigma = 0.000010, epsilon = 0.000430
 h51bf                                  1      0.0000       0.00000       A     2.62565e-01     6.69658e-02    ;  uncertainty sigma = 0.000011, epsilon = 0.000532
 h52bf                                  1      0.0000       0.00000       A     2.62555e-01     6.71501e-02    ;  uncertainty sigma = 0.000013, epsilon = 0.000465
 h53bf                                  1      0.0000       0.00000       A     2.53604e-01     6.70807e-02    ;  uncertainty sigma = 0.000028, epsilon = 0.000600
 h54bf                                  1      0.0000       0.00000       A     2.53604e-01     6.70806e-02    ;  uncertainty sigma = 0.000028, epsilon = 0.000600

[ moleculetype ]
;name             nrexcl
 MOL                   3

[ atoms ]
;       nr            type      resi   res      atom      cgnr      charge          mass ; qtot
         1            c0bf         1   UNL        c0         1    -0.15263       12.0110 ; qtot   -0.153
         2            c1bf         1   UNL        c1         2     0.48525       12.0110 ; qtot    0.333
         3            n2bf         1   UNL        n2         3    -0.77371       14.0070 ; qtot   -0.441
         4            c3bf         1   UNL        c3         4     0.90039       12.0110 ; qtot    0.459
         5            n4bf         1   UNL        n4         5    -0.77371       14.0070 ; qtot   -0.314
         6            c5bf         1   UNL        c5         6     0.48525       12.0110 ; qtot    0.171
         7            c6bf         1   UNL        c6         7    -0.15263       12.0110 ; qtot    0.018
         8            c7bf         1   UNL        c7         8    -0.35276       12.0110 ; qtot   -0.335
         9            c8bf         1   UNL        c8         9    -0.02926       12.0110 ; qtot   -0.364
        10            n9bf         1   UNL        n9        10    -0.79121       14.0070 ; qtot   -1.155
        11           c10bf         1   UNL       c10        11     0.23390       12.0110 ; qtot   -0.921
        12           c11bf         1   UNL       c11        12    -0.09743       12.0110 ; qtot   -1.019
        13           c12bf         1   UNL       c12        13     0.11057       12.0110 ; qtot   -0.908
        14           n13bf         1   UNL       n13        14    -0.47239       14.0070 ; qtot   -1.380
        15           c14bf         1   UNL       c14        15     0.11057       12.0110 ; qtot   -1.270
        16           c15bf         1   UNL       c15        16    -0.09743       12.0110 ; qtot   -1.367
        17           c16bf         1   UNL       c16        17     0.23390       12.0110 ; qtot   -1.133
        18           c17bf         1   UNL       c17        18     0.70764       12.0110 ; qtot   -0.426
        19           o18bf         1   UNL       o18        19    -0.58293       15.9990 ; qtot   -1.009
        20           c19bf         1   UNL       c19        20    -0.15596       12.0110 ; qtot   -1.165
        21           c20bf         1   UNL       c20        21     0.16292       12.0110 ; qtot   -1.002
        22           f21bf         1   UNL       f21        22    -0.13494       18.9980 ; qtot   -1.137
        23           c22bf         1   UNL       c22        23    -0.15817       12.0110 ; qtot   -1.295
        24           c23bf         1   UNL       c23        24    -0.08197       12.0110 ; qtot   -1.377
        25           c24bf         1   UNL       c24        25    -0.13048       12.0110 ; qtot   -1.507
        26           c25bf         1   UNL       c25        26     0.07222       12.0110 ; qtot   -1.435
        27           n26bf         1   UNL       n26        27     0.30201       14.0070 ; qtot   -1.133
        28           n27bf         1   UNL       n27        28    -0.47243       14.0070 ; qtot   -1.605
        29           c28bf         1   UNL       c28        29     0.20275       12.0110 ; qtot   -1.403
        30           c29bf         1   UNL       c29        30     0.20275       12.0110 ; qtot   -1.200
        31           n30bf         1   UNL       n30        31    -0.47243       14.0070 ; qtot   -1.672
        32           h31bf         1   UNL       h31        32     0.05663        1.0080 ; qtot   -1.616
        33           h32bf         1   UNL       h32        33     0.05663        1.0080 ; qtot   -1.559
        34           h33bf         1   UNL       h33        34     0.05663        1.0080 ; qtot   -1.502
        35           h34bf         1   UNL       h34        35     0.05663        1.0080 ; qtot   -1.446
        36           h35bf         1   UNL       h35        36     0.05663        1.0080 ; qtot   -1.389
        37           h36bf         1   UNL       h36        37     0.05663        1.0080 ; qtot   -1.333
        38           h37bf         1   UNL       h37        38     0.04511        1.0080 ; qtot   -1.287
        39           h38bf         1   UNL       h38        39     0.04511        1.0080 ; qtot   -1.242
        40           h39bf         1   UNL       h39        40     0.04511        1.0080 ; qtot   -1.197
        41           h40bf         1   UNL       h40        41     0.05891        1.0080 ; qtot   -1.138
        42           h41bf         1   UNL       h41        42     0.05891        1.0080 ; qtot   -1.079
        43           h42bf         1   UNL       h42        43     0.07237        1.0080 ; qtot   -1.007
        44           h43bf         1   UNL       h43        44     0.05981        1.0080 ; qtot   -0.947
        45           h44bf         1   UNL       h44        45     0.05981        1.0080 ; qtot   -0.887
        46           h45bf         1   UNL       h45        46     0.05981        1.0080 ; qtot   -0.828
        47           h46bf         1   UNL       h46        47     0.05981        1.0080 ; qtot   -0.768
        48           h47bf         1   UNL       h47        48     0.07237        1.0080 ; qtot   -0.695
        49           h48bf         1   UNL       h48        49     0.05891        1.0080 ; qtot   -0.637
        50           h49bf         1   UNL       h49        50     0.05891        1.0080 ; qtot   -0.578
        51           h50bf         1   UNL       h50        51     0.15846        1.0080 ; qtot   -0.419
        52           h51bf         1   UNL       h51        52     0.14574        1.0080 ; qtot   -0.273
        53           h52bf         1   UNL       h52        53     0.16350        1.0080 ; qtot   -0.110
        54           h53bf         1   UNL       h53        54     0.05496        1.0080 ; qtot   -0.055
        55           h54bf         1   UNL       h54        55     0.05496        1.0080 ; qtot    0.000

[ bonds ]
;       ai        aj funct               r               k
         1         2     1        0.150850   240781.896387    ;  uncertainty r = 0.000040, k = 1.886120
         1        32     1        0.109427   310691.546436    ;  uncertainty r = 0.000015, k = 1.274360
         1        33     1        0.109427   310691.546436    ;  uncertainty r = 0.000015, k = 1.274360
         1        34     1        0.109427   310691.546436    ;  uncertainty r = 0.000015, k = 1.274360
         2         3     1        0.134225   445479.193262    ;  uncertainty r = 0.000077, k = 6.317629
         2         8     1        0.140776   355670.235937    ;  uncertainty r = 0.000054, k = 17.049448
         3         4     1        0.134926   496212.695898    ;  uncertainty r = 0.000084, k = 17.849766
         4         5     1        0.134926   496212.695898    ;  uncertainty r = 0.000084, k = 17.849766
         4        10     1        0.136733   318199.865186    ;  uncertainty r = 0.000095, k = 24.692056
         5         6     1        0.134225   445479.193262    ;  uncertainty r = 0.000077, k = 6.317629
         6         7     1        0.150850   240781.896387    ;  uncertainty r = 0.000040, k = 1.886120
         6         8     1        0.140776   355670.235937    ;  uncertainty r = 0.000054, k = 17.049448
         7        35     1        0.109427   310691.546436    ;  uncertainty r = 0.000015, k = 1.274360
         7        36     1        0.109427   310691.546436    ;  uncertainty r = 0.000015, k = 1.274360
         7        37     1        0.109427   310691.546436    ;  uncertainty r = 0.000015, k = 1.274360
         8         9     1        0.150876   236728.186719    ;  uncertainty r = 0.000063, k = 4.572087
         9        38     1        0.109447   308799.578613    ;  uncertainty r = 0.000019, k = 1.534889
         9        39     1        0.109447   308799.578613    ;  uncertainty r = 0.000019, k = 1.534889
         9        40     1        0.109447   308799.578613    ;  uncertainty r = 0.000019, k = 1.534889
        10        11     1        0.146381   223708.423486    ;  uncertainty r = 0.000058, k = 14.342709
        10        17     1        0.146381   223708.449023    ;  uncertainty r = 0.000058, k = 14.342715
        11        12     1        0.153378   218045.467334    ;  uncertainty r = 0.000067, k = 7.088220
        11        41     1        0.109551   306518.450781    ;  uncertainty r = 0.000069, k = 2.534282
        11        42     1        0.109551   306518.450781    ;  uncertainty r = 0.000069, k = 2.534282
        12        13     1        0.153480   216617.049121    ;  uncertainty r = 0.000023, k = 7.412723
        12        16     1        0.154451   200722.496875    ;  uncertainty r = 0.000080, k = 20.796785
        12        43     1        0.109350   305021.261133    ;  uncertainty r = 0.000029, k = 3.829702
        13        14     1        0.146976   241154.380664    ;  uncertainty r = 0.000047, k = 15.575172
        13        44     1        0.109439   307434.875488    ;  uncertainty r = 0.000026, k = 1.171544
        13        45     1        0.109439   307434.875488    ;  uncertainty r = 0.000026, k = 1.171544
        14        15     1        0.146976   241154.380664    ;  uncertainty r = 0.000047, k = 15.575144
        14        18     1        0.135088   335723.021045    ;  uncertainty r = 0.000166, k = 15.024462
        15        16     1        0.153480   216617.074658    ;  uncertainty r = 0.000023, k = 7.412680
        15        46     1        0.109439   307434.875488    ;  uncertainty r = 0.000026, k = 1.171521
        15        47     1        0.109439   307434.875488    ;  uncertainty r = 0.000026, k = 1.171521
        16        17     1        0.153378   218045.441797    ;  uncertainty r = 0.000067, k = 7.088228
        16        48     1        0.109350   305021.261133    ;  uncertainty r = 0.000029, k = 3.829660
        17        49     1        0.109551   306518.450781    ;  uncertainty r = 0.000069, k = 2.534287
        17        50     1        0.109551   306518.450781    ;  uncertainty r = 0.000069, k = 2.534287
        18        19     1        0.123492   739384.865723    ;  uncertainty r = 0.000039, k = 10.151716
        18        20     1        0.151093   272101.603271    ;  uncertainty r = 0.000079, k = 31.154101
        20        21     1        0.139399   331888.649609    ;  uncertainty r = 0.000087, k = 16.801357
        20        26     1        0.139529   322378.221484    ;  uncertainty r = 0.000112, k = 6.618765
        21        22     1        0.135284   339697.693359    ;  uncertainty r = 0.000139, k = 6.883764
        21        23     1        0.138876   355374.082080    ;  uncertainty r = 0.000029, k = 4.848304
        23        24     1        0.139230   385818.044873    ;  uncertainty r = 0.000031, k = 3.156029
        23        51     1        0.108754   335743.833789    ;  uncertainty r = 0.000014, k = 1.461762
        24        25     1        0.139117   371572.781299    ;  uncertainty r = 0.000042, k = 2.923689
        24        52     1        0.108705   332118.687891    ;  uncertainty r = 0.000011, k = 1.593644
        25        26     1        0.139176   333973.831201    ;  uncertainty r = 0.000089, k = 2.958672
        25        53     1        0.108623   333131.336426    ;  uncertainty r = 0.000019, k = 1.837628
        26        27     1        0.140554   317671.476855    ;  uncertainty r = 0.000102, k = 8.472881
        27        28     1        0.134456   229486.015723    ;  uncertainty r = 0.000080, k = 10.859863
        27        31     1        0.134456   229486.015723    ;  uncertainty r = 0.000080, k = 10.859863
        28        29     1        0.132965   463550.937305    ;  uncertainty r = 0.000052, k = 7.730519
        29        30     1        0.141781   249584.001709    ;  uncertainty r = 0.000103, k = 15.332670
        29        54     1        0.108418   339910.136572    ;  uncertainty r = 0.000037, k = 1.124299
        30        31     1        0.132965   463550.937305    ;  uncertainty r = 0.000052, k = 7.730523
        30        55     1        0.108418   339910.136572    ;  uncertainty r = 0.000037, k = 1.124299

[ angles ]
;       ai        aj        ak funct           theta             cth
         1         2         3     1      118.512184      524.793407    ;  uncertainty theta = 0.002773, k = 0.132654
         1         2         8     1      119.828781      372.102689    ;  uncertainty theta = 0.003226, k = 0.292542
         2         1        32     1      109.228294      383.194222    ;  uncertainty theta = 0.001779, k = 0.077666
         2         1        33     1      109.228294      383.194222    ;  uncertainty theta = 0.001779, k = 0.077666
         2         1        34     1      109.228294      383.194222    ;  uncertainty theta = 0.001779, k = 0.077666
         2         3         4     1      116.073959      417.720043    ;  uncertainty theta = 0.007327, k = 0.250574
         2         8         6     1      118.689903      390.426203    ;  uncertainty theta = 0.010726, k = 0.459114
         2         8         9     1      120.197060      391.221940    ;  uncertainty theta = 0.007444, k = 0.188399
         3         2         8     1      122.474655      639.943298    ;  uncertainty theta = 0.003183, k = 0.177657
         3         4         5     1      128.291412      714.587566    ;  uncertainty theta = 0.004976, k = 0.156133
         3         4        10     1      119.667152      543.796975    ;  uncertainty theta = 0.007626, k = 0.187843
         4         5         6     1      116.073959      417.720043    ;  uncertainty theta = 0.007327, k = 0.250574
         4        10        11     1      113.680443      433.394625    ;  uncertainty theta = 0.003100, k = 0.210840
         4        10        17     1      113.680443      433.394561    ;  uncertainty theta = 0.003100, k = 0.210840
         5         4        10     1      119.667152      543.796975    ;  uncertainty theta = 0.007626, k = 0.187843
         5         6         7     1      118.512184      524.793407    ;  uncertainty theta = 0.002773, k = 0.132654
         5         6         8     1      122.474655      639.943298    ;  uncertainty theta = 0.003183, k = 0.177657
         6         7        35     1      109.228294      383.194222    ;  uncertainty theta = 0.001779, k = 0.077666
         6         7        36     1      109.228294      383.194222    ;  uncertainty theta = 0.001779, k = 0.077666
         6         7        37     1      109.228294      383.194222    ;  uncertainty theta = 0.001779, k = 0.077666
         6         8         9     1      120.197060      391.221940    ;  uncertainty theta = 0.007444, k = 0.188399
         7         6         8     1      119.828781      372.102689    ;  uncertainty theta = 0.003226, k = 0.292542
         8         9        38     1      110.069664      390.889989    ;  uncertainty theta = 0.001014, k = 0.053949
         8         9        39     1      110.069664      390.889989    ;  uncertainty theta = 0.001014, k = 0.053949
         8         9        40     1      110.069664      390.889989    ;  uncertainty theta = 0.001014, k = 0.053949
        10        11        12     1      105.543358      834.662672    ;  uncertainty theta = 0.001817, k = 0.093259
        10        11        41     1      108.562340      456.415882    ;  uncertainty theta = 0.001202, k = 0.062362
        10        11        42     1      108.562340      456.415882    ;  uncertainty theta = 0.001202, k = 0.062362
        10        17        16     1      105.543358      834.662608    ;  uncertainty theta = 0.001817, k = 0.093260
        10        17        49     1      108.562340      456.415818    ;  uncertainty theta = 0.001202, k = 0.062362
        10        17        50     1      108.562340      456.415818    ;  uncertainty theta = 0.001202, k = 0.062362
        11        10        17     1      112.639442      489.228450    ;  uncertainty theta = 0.009972, k = 0.334405
        11        12        13     1      113.001526      495.885112    ;  uncertainty theta = 0.002967, k = 0.272650
        11        12        16     1      106.407143      696.228300    ;  uncertainty theta = 0.000820, k = 0.121960
        11        12        43     1      108.909218      387.529593    ;  uncertainty theta = 0.002428, k = 0.196423
        12        11        41     1      109.942749      401.681046    ;  uncertainty theta = 0.001744, k = 0.042629
        12        11        42     1      109.942749      401.681046    ;  uncertainty theta = 0.001744, k = 0.042629
        12        13        14     1      106.005104      800.142884    ;  uncertainty theta = 0.002837, k = 0.185313
        12        13        44     1      109.812805      398.157914    ;  uncertainty theta = 0.002056, k = 0.096133
        12        13        45     1      109.812805      398.157914    ;  uncertainty theta = 0.002056, k = 0.096133
        12        16        15     1      106.536072      683.535718    ;  uncertainty theta = 0.002057, k = 0.120116
        12        16        17     1      106.407143      696.228492    ;  uncertainty theta = 0.000820, k = 0.121960
        12        16        48     1      109.787766      408.249925    ;  uncertainty theta = 0.001833, k = 0.098421
        13        12        16     1      106.536072      683.535654    ;  uncertainty theta = 0.002057, k = 0.120117
        13        12        43     1      108.976547      381.109245    ;  uncertainty theta = 0.002391, k = 0.150517
        13        14        15     1      114.311745      540.101883    ;  uncertainty theta = 0.003229, k = 0.142692
        13        14        18     1      117.974327      368.182647    ;  uncertainty theta = 0.003980, k = 0.157584
        14        13        44     1      109.203384      457.892789    ;  uncertainty theta = 0.001598, k = 0.109127
        14        13        45     1      109.203384      457.892789    ;  uncertainty theta = 0.001598, k = 0.109127
        14        15        16     1      106.005104      800.142884    ;  uncertainty theta = 0.002837, k = 0.185312
        14        15        46     1      109.203384      457.892789    ;  uncertainty theta = 0.001598, k = 0.109127
        14        15        47     1      109.203384      457.892789    ;  uncertainty theta = 0.001598, k = 0.109127
        14        18        19     1      124.922256      740.345444    ;  uncertainty theta = 0.002458, k = 0.115631
        14        18        20     1      112.159889      368.733068    ;  uncertainty theta = 0.002788, k = 0.265066
        15        14        18     1      117.974327      368.182647    ;  uncertainty theta = 0.003980, k = 0.157584
        15        16        17     1      113.001526      495.885112    ;  uncertainty theta = 0.002967, k = 0.272650
        15        16        48     1      108.976547      381.109245    ;  uncertainty theta = 0.002391, k = 0.150517
        16        12        43     1      109.787766      408.249925    ;  uncertainty theta = 0.001833, k = 0.098421
        16        15        46     1      109.812805      398.157914    ;  uncertainty theta = 0.002056, k = 0.096133
        16        15        47     1      109.812805      398.157914    ;  uncertainty theta = 0.002056, k = 0.096133
        16        17        49     1      109.942749      401.681014    ;  uncertainty theta = 0.001744, k = 0.042629
        16        17        50     1      109.942749      401.681014    ;  uncertainty theta = 0.001744, k = 0.042629
        17        16        48     1      108.909218      387.529561    ;  uncertainty theta = 0.002428, k = 0.196423
        18        20        21     1      122.644753      394.633059    ;  uncertainty theta = 0.009716, k = 0.281698
        18        20        26     1      121.727440      360.483272    ;  uncertainty theta = 0.007459, k = 0.258991
        19        18        20     1      123.973495      474.716636    ;  uncertainty theta = 0.004986, k = 0.295298
        20        21        22     1      116.293533      481.718082    ;  uncertainty theta = 0.003628, k = 0.151958
        20        21        23     1      125.257851      358.228537    ;  uncertainty theta = 0.006392, k = 0.161234
        20        26        25     1      126.248352      383.964293    ;  uncertainty theta = 0.008470, k = 0.143041
        20        26        27     1      115.625549      424.401189    ;  uncertainty theta = 0.005276, k = 0.425221
        21        20        26     1      120.519875      451.018997    ;  uncertainty theta = 0.010533, k = 0.145475
        21        23        24     1      116.906998      480.293111    ;  uncertainty theta = 0.004692, k = 0.077746
        21        23        51     1      120.257713      280.421849    ;  uncertainty theta = 0.001644, k = 0.051464
        22        21        23     1      119.307655      515.150978    ;  uncertainty theta = 0.004276, k = 0.124646
        23        24        25     1      119.580154      501.480038    ;  uncertainty theta = 0.001152, k = 0.050795
        23        24        52     1      120.085129      283.076623    ;  uncertainty theta = 0.000551, k = 0.029815
        24        23        51     1      122.091469      282.690757    ;  uncertainty theta = 0.001292, k = 0.025850
        24        25        26     1      119.295853      511.815512    ;  uncertainty theta = 0.002200, k = 0.078353
        24        25        53     1      121.511391      292.121324    ;  uncertainty theta = 0.001401, k = 0.054323
        25        24        52     1      119.901108      278.613917    ;  uncertainty theta = 0.000633, k = 0.016225
        25        26        27     1      118.568016      453.799094    ;  uncertainty theta = 0.002843, k = 0.118727
        26        25        53     1      118.140259      263.598991    ;  uncertainty theta = 0.002697, k = 0.141621
        26        27        28     1      116.169716      430.317850    ;  uncertainty theta = 0.006654, k = 0.182017
        26        27        31     1      116.169716      430.317850    ;  uncertainty theta = 0.006654, k = 0.182017
        27        28        29     1      105.336914      920.571231    ;  uncertainty theta = 0.004509, k = 0.170853
        27        31        30     1      105.336914      920.571231    ;  uncertainty theta = 0.004509, k = 0.170853
        28        27        31     1      113.935104     1160.946488    ;  uncertainty theta = 0.004391, k = 0.191360
        28        29        30     1      108.874611      885.375859    ;  uncertainty theta = 0.003815, k = 0.097431
        28        29        54     1      119.790878      274.219077    ;  uncertainty theta = 0.003825, k = 0.115835
        29        30        31     1      108.874611      885.375859    ;  uncertainty theta = 0.003815, k = 0.097431
        29        30        55     1      127.065453      242.460680    ;  uncertainty theta = 0.004115, k = 0.077998
        30        29        54     1      127.065453      242.460680    ;  uncertainty theta = 0.004115, k = 0.077998
        31        30        55     1      119.790878      274.219077    ;  uncertainty theta = 0.003825, k = 0.115835
        32         1        33     1      107.091507      314.389971    ;  uncertainty theta = 0.001804, k = 0.017605
        32         1        34     1      107.091507      314.389971    ;  uncertainty theta = 0.001804, k = 0.017605
        33         1        34     1      107.091507      314.389971    ;  uncertainty theta = 0.001804, k = 0.017605
        35         7        36     1      107.091515      314.389971    ;  uncertainty theta = 0.001804, k = 0.017605
        35         7        37     1      107.091515      314.389971    ;  uncertainty theta = 0.001804, k = 0.017605
        36         7        37     1      107.091515      314.389971    ;  uncertainty theta = 0.001804, k = 0.017605
        38         9        39     1      106.502625      319.259068    ;  uncertainty theta = 0.001300, k = 0.020558
        38         9        40     1      106.502625      319.259068    ;  uncertainty theta = 0.001300, k = 0.020558
        39         9        40     1      106.502625      319.259068    ;  uncertainty theta = 0.001300, k = 0.020558
        41        11        42     1      105.123001      312.324913    ;  uncertainty theta = 0.002382, k = 0.114503
        44        13        45     1      105.371437      309.387890    ;  uncertainty theta = 0.003860, k = 0.079571
        46        15        47     1      105.371445      309.387890    ;  uncertainty theta = 0.003860, k = 0.079571
        49        17        50     1      105.123001      312.324913    ;  uncertainty theta = 0.002382, k = 0.114504

[ dihedrals ] ; propers for gromacs 4.5 or higher, use funct 9
;       ai        aj        ak        al funct           phase               k        pn
         1         2         3         4     9        0.000000        0.209954         1    ;  uncertainty k = 0.776563
         1         2         3         4     9      180.000000       15.197163         2    ;  uncertainty k = 0.654979
         1         2         3         4     9        0.000000        2.509984         3    ;  uncertainty k = 0.369902
         1         2         3         4     9      180.000000        1.799135         4    ;  uncertainty k = 0.425494
         1         2         8         6     9        0.000000        0.139451         1    ;  uncertainty k = 0.518796
         1         2         8         6     9      180.000000        6.585552         2    ;  uncertainty k = 0.525757
         1         2         8         6     9        0.000000        0.923116         3    ;  uncertainty k = 0.310381
         1         2         8         6     9      180.000000        1.223711         4    ;  uncertainty k = 0.349037
         1         2         8         9     9        0.000000       -0.007929         1    ;  uncertainty k = 0.455970
         1         2         8         9     9      180.000000        8.934515         2    ;  uncertainty k = 0.351472
         1         2         8         9     9        0.000000        0.689927         3    ;  uncertainty k = 0.175183
         1         2         8         9     9      180.000000        1.027770         4    ;  uncertainty k = 0.300819
         2         3         4         5     9        0.000000       -0.555445         1    ;  uncertainty k = 0.731407
         2         3         4         5     9      180.000000        8.456165         2    ;  uncertainty k = 0.629196
         2         3         4         5     9        0.000000        0.713842         3    ;  uncertainty k = 0.548269
         2         3         4         5     9      180.000000        0.728064         4    ;  uncertainty k = 0.120992
         2         3         4        10     9        0.000000        0.431633         1    ;  uncertainty k = 1.025535
         2         3         4        10     9      180.000000        9.994330         2    ;  uncertainty k = 0.568173
         2         3         4        10     9        0.000000        1.747784         3    ;  uncertainty k = 0.300965
         2         3         4        10     9      180.000000        0.964352         4    ;  uncertainty k = 0.194737
         2         8         6         5     9        0.000000        0.035107         1    ;  uncertainty k = 0.383046
         2         8         6         5     9      180.000000        9.721628         2    ;  uncertainty k = 0.590828
         2         8         6         5     9        0.000000       -0.277009         3    ;  uncertainty k = 0.183106
         2         8         6         5     9      180.000000        1.065388         4    ;  uncertainty k = 0.217877
         2         8         6         7     9        0.000000        0.139451         1    ;  uncertainty k = 0.518796
         2         8         6         7     9      180.000000        6.585552         2    ;  uncertainty k = 0.525757
         2         8         6         7     9        0.000000        0.923116         3    ;  uncertainty k = 0.310381
         2         8         6         7     9      180.000000        1.223711         4    ;  uncertainty k = 0.349037
         2         8         9        38     9        0.000000        0.104204         1    ;  uncertainty k = 0.321486
         2         8         9        38     9      180.000000        1.468525         2    ;  uncertainty k = 0.097621
         2         8         9        38     9        0.000000        0.437111         3    ;  uncertainty k = 0.103904
         2         8         9        38     9      180.000000        0.273601         4    ;  uncertainty k = 0.058690
         2         8         9        39     9        0.000000        0.104204         1    ;  uncertainty k = 0.321486
         2         8         9        39     9      180.000000        1.468525         2    ;  uncertainty k = 0.097621
         2         8         9        39     9        0.000000        0.437111         3    ;  uncertainty k = 0.103904
         2         8         9        39     9      180.000000        0.273601         4    ;  uncertainty k = 0.058690
         2         8         9        40     9        0.000000        0.104204         1    ;  uncertainty k = 0.321486
         2         8         9        40     9      180.000000        1.468525         2    ;  uncertainty k = 0.097621
         2         8         9        40     9        0.000000        0.437111         3    ;  uncertainty k = 0.103904
         2         8         9        40     9      180.000000        0.273601         4    ;  uncertainty k = 0.058690
         3         2         1        32     9        0.000000        0.599848         1    ;  uncertainty k = 0.157620
         3         2         1        32     9      180.000000        3.795837         2    ;  uncertainty k = 0.114183
         3         2         1        32     9        0.000000        0.491077         3    ;  uncertainty k = 0.079759
         3         2         1        32     9      180.000000        0.282845         4    ;  uncertainty k = 0.034571
         3         2         1        33     9        0.000000        0.599848         1    ;  uncertainty k = 0.157620
         3         2         1        33     9      180.000000        3.795837         2    ;  uncertainty k = 0.114183
         3         2         1        33     9        0.000000        0.491077         3    ;  uncertainty k = 0.079759
         3         2         1        33     9      180.000000        0.282845         4    ;  uncertainty k = 0.034571
         3         2         1        34     9        0.000000        0.599848         1    ;  uncertainty k = 0.157620
         3         2         1        34     9      180.000000        3.795837         2    ;  uncertainty k = 0.114183
         3         2         1        34     9        0.000000        0.491077         3    ;  uncertainty k = 0.079759
         3         2         1        34     9      180.000000        0.282845         4    ;  uncertainty k = 0.034571
         3         2         8         6     9        0.000000        0.035107         1    ;  uncertainty k = 0.383046
         3         2         8         6     9      180.000000        9.721628         2    ;  uncertainty k = 0.590828
         3         2         8         6     9        0.000000       -0.277009         3    ;  uncertainty k = 0.183106
         3         2         8         6     9      180.000000        1.065388         4    ;  uncertainty k = 0.217877
         3         2         8         9     9        0.000000        0.259100         1    ;  uncertainty k = 0.852671
         3         2         8         9     9      180.000000       10.033667         2    ;  uncertainty k = 0.538939
         3         2         8         9     9        0.000000        1.088737         3    ;  uncertainty k = 0.408904
         3         2         8         9     9      180.000000        1.443360         4    ;  uncertainty k = 0.251583
         3         4         5         6     9        0.000000       -0.555445         1    ;  uncertainty k = 0.731407
         3         4         5         6     9      180.000000        8.456165         2    ;  uncertainty k = 0.629196
         3         4         5         6     9        0.000000        0.713842         3    ;  uncertainty k = 0.548269
         3         4         5         6     9      180.000000        0.728064         4    ;  uncertainty k = 0.120992
         3         4        10        11     9        0.000000        5.083208         1    ;  uncertainty k = 0.479603
         3         4        10        11     9      180.000000       11.055195         2    ;  uncertainty k = 0.175178
         3         4        10        11     9        0.000000        0.241632         3    ;  uncertainty k = 0.212543
         3         4        10        11     9      180.000000       -0.337141         4    ;  uncertainty k = 0.052364
         3         4        10        17     9        0.000000        5.083208         1    ;  uncertainty k = 0.479602
         3         4        10        17     9      180.000000       11.055195         2    ;  uncertainty k = 0.175178
         3         4        10        17     9        0.000000        0.241632         3    ;  uncertainty k = 0.212543
         3         4        10        17     9      180.000000       -0.337141         4    ;  uncertainty k = 0.052364
         4         3         2         8     9        0.000000       -0.566005         1    ;  uncertainty k = 0.473516
         4         3         2         8     9      180.000000       14.411957         2    ;  uncertainty k = 0.295872
         4         3         2         8     9        0.000000        0.481195         3    ;  uncertainty k = 0.829108
         4         3         2         8     9      180.000000        1.250213         4    ;  uncertainty k = 0.527761
         4         5         6         7     9        0.000000        0.209954         1    ;  uncertainty k = 0.776563
         4         5         6         7     9      180.000000       15.197163         2    ;  uncertainty k = 0.654979
         4         5         6         7     9        0.000000        2.509984         3    ;  uncertainty k = 0.369902
         4         5         6         7     9      180.000000        1.799135         4    ;  uncertainty k = 0.425494
         4         5         6         8     9        0.000000       -0.566005         1    ;  uncertainty k = 0.473516
         4         5         6         8     9      180.000000       14.411957         2    ;  uncertainty k = 0.295872
         4         5         6         8     9        0.000000        0.481195         3    ;  uncertainty k = 0.829108
         4         5         6         8     9      180.000000        1.250213         4    ;  uncertainty k = 0.527761
         4        10        11        12     9        0.000000       -5.412102         1    ;  uncertainty k = 1.996662
         4        10        11        12     9      180.000000        0.715876         2    ;  uncertainty k = 0.715981
         4        10        11        12     9        0.000000        0.810646         3    ;  uncertainty k = 0.296224
         4        10        11        12     9      180.000000        0.316604         4    ;  uncertainty k = 0.130315
         4        10        11        41     9        0.000000       -0.205341         1    ;  uncertainty k = 0.778934
         4        10        11        41     9      180.000000        1.034706         2    ;  uncertainty k = 0.401296
         4        10        11        41     9        0.000000        0.577464         3    ;  uncertainty k = 0.131093
         4        10        11        41     9      180.000000        0.375095         4    ;  uncertainty k = 0.105969
         4        10        11        42     9        0.000000       -0.205341         1    ;  uncertainty k = 0.778934
         4        10        11        42     9      180.000000        1.034706         2    ;  uncertainty k = 0.401296
         4        10        11        42     9        0.000000        0.577464         3    ;  uncertainty k = 0.131093
         4        10        11        42     9      180.000000        0.375095         4    ;  uncertainty k = 0.105969
         4        10        17        16     9        0.000000       -5.412100         1    ;  uncertainty k = 1.996659
         4        10        17        16     9      180.000000        0.715877         2    ;  uncertainty k = 0.715980
         4        10        17        16     9        0.000000        0.810646         3    ;  uncertainty k = 0.296224
         4        10        17        16     9      180.000000        0.316604         4    ;  uncertainty k = 0.130315
         4        10        17        49     9        0.000000       -0.205340         1    ;  uncertainty k = 0.778936
         4        10        17        49     9      180.000000        1.034707         2    ;  uncertainty k = 0.401296
         4        10        17        49     9        0.000000        0.577465         3    ;  uncertainty k = 0.131093
         4        10        17        49     9      180.000000        0.375096         4    ;  uncertainty k = 0.105969
         4        10        17        50     9        0.000000       -0.205340         1    ;  uncertainty k = 0.778936
         4        10        17        50     9      180.000000        1.034707         2    ;  uncertainty k = 0.401296
         4        10        17        50     9        0.000000        0.577465         3    ;  uncertainty k = 0.131093
         4        10        17        50     9      180.000000        0.375096         4    ;  uncertainty k = 0.105969
         5         4        10        11     9        0.000000        5.083208         1    ;  uncertainty k = 0.479603
         5         4        10        11     9      180.000000       11.055195         2    ;  uncertainty k = 0.175178
         5         4        10        11     9        0.000000        0.241632         3    ;  uncertainty k = 0.212543
         5         4        10        11     9      180.000000       -0.337141         4    ;  uncertainty k = 0.052364
         5         4        10        17     9        0.000000        5.083208         1    ;  uncertainty k = 0.479602
         5         4        10        17     9      180.000000       11.055195         2    ;  uncertainty k = 0.175178
         5         4        10        17     9        0.000000        0.241632         3    ;  uncertainty k = 0.212543
         5         4        10        17     9      180.000000       -0.337141         4    ;  uncertainty k = 0.052364
         5         6         7        35     9        0.000000        0.599848         1    ;  uncertainty k = 0.157620
         5         6         7        35     9      180.000000        3.795837         2    ;  uncertainty k = 0.114183
         5         6         7        35     9        0.000000        0.491077         3    ;  uncertainty k = 0.079759
         5         6         7        35     9      180.000000        0.282845         4    ;  uncertainty k = 0.034571
         5         6         7        36     9        0.000000        0.599848         1    ;  uncertainty k = 0.157620
         5         6         7        36     9      180.000000        3.795837         2    ;  uncertainty k = 0.114183
         5         6         7        36     9        0.000000        0.491077         3    ;  uncertainty k = 0.079759
         5         6         7        36     9      180.000000        0.282845         4    ;  uncertainty k = 0.034571
         5         6         7        37     9        0.000000        0.599848         1    ;  uncertainty k = 0.157620
         5         6         7        37     9      180.000000        3.795837         2    ;  uncertainty k = 0.114183
         5         6         7        37     9        0.000000        0.491077         3    ;  uncertainty k = 0.079759
         5         6         7        37     9      180.000000        0.282845         4    ;  uncertainty k = 0.034571
         5         6         8         9     9        0.000000        0.259100         1    ;  uncertainty k = 0.852671
         5         6         8         9     9      180.000000       10.033667         2    ;  uncertainty k = 0.538939
         5         6         8         9     9        0.000000        1.088737         3    ;  uncertainty k = 0.408904
         5         6         8         9     9      180.000000        1.443360         4    ;  uncertainty k = 0.251583
         6         5         4        10     9        0.000000        0.431633         1    ;  uncertainty k = 1.025535
         6         5         4        10     9      180.000000        9.994330         2    ;  uncertainty k = 0.568173
         6         5         4        10     9        0.000000        1.747784         3    ;  uncertainty k = 0.300965
         6         5         4        10     9      180.000000        0.964352         4    ;  uncertainty k = 0.194737
         6         8         9        38     9        0.000000        0.104204         1    ;  uncertainty k = 0.321486
         6         8         9        38     9      180.000000        1.468525         2    ;  uncertainty k = 0.097621
         6         8         9        38     9        0.000000        0.437111         3    ;  uncertainty k = 0.103904
         6         8         9        38     9      180.000000        0.273601         4    ;  uncertainty k = 0.058690
         6         8         9        39     9        0.000000        0.104204         1    ;  uncertainty k = 0.321486
         6         8         9        39     9      180.000000        1.468525         2    ;  uncertainty k = 0.097621
         6         8         9        39     9        0.000000        0.437111         3    ;  uncertainty k = 0.103904
         6         8         9        39     9      180.000000        0.273601         4    ;  uncertainty k = 0.058690
         6         8         9        40     9        0.000000        0.104204         1    ;  uncertainty k = 0.321486
         6         8         9        40     9      180.000000        1.468525         2    ;  uncertainty k = 0.097621
         6         8         9        40     9        0.000000        0.437111         3    ;  uncertainty k = 0.103904
         6         8         9        40     9      180.000000        0.273601         4    ;  uncertainty k = 0.058690
         7         6         8         9     9        0.000000       -0.007929         1    ;  uncertainty k = 0.455970
         7         6         8         9     9      180.000000        8.934515         2    ;  uncertainty k = 0.351472
         7         6         8         9     9        0.000000        0.689927         3    ;  uncertainty k = 0.175183
         7         6         8         9     9      180.000000        1.027770         4    ;  uncertainty k = 0.300819
         8         2         1        32     9        0.000000       -0.033863         1    ;  uncertainty k = 0.269290
         8         2         1        32     9      180.000000        2.879315         2    ;  uncertainty k = 0.161529
         8         2         1        32     9        0.000000        0.425590         3    ;  uncertainty k = 0.091001
         8         2         1        32     9      180.000000        0.264793         4    ;  uncertainty k = 0.049724
         8         2         1        33     9        0.000000       -0.033863         1    ;  uncertainty k = 0.269290
         8         2         1        33     9      180.000000        2.879315         2    ;  uncertainty k = 0.161529
         8         2         1        33     9        0.000000        0.425590         3    ;  uncertainty k = 0.091001
         8         2         1        33     9      180.000000        0.264793         4    ;  uncertainty k = 0.049724
         8         2         1        34     9        0.000000       -0.033863         1    ;  uncertainty k = 0.269290
         8         2         1        34     9      180.000000        2.879315         2    ;  uncertainty k = 0.161529
         8         2         1        34     9        0.000000        0.425590         3    ;  uncertainty k = 0.091001
         8         2         1        34     9      180.000000        0.264793         4    ;  uncertainty k = 0.049724
         8         6         7        35     9        0.000000       -0.033863         1    ;  uncertainty k = 0.269290
         8         6         7        35     9      180.000000        2.879315         2    ;  uncertainty k = 0.161529
         8         6         7        35     9        0.000000        0.425590         3    ;  uncertainty k = 0.091001
         8         6         7        35     9      180.000000        0.264793         4    ;  uncertainty k = 0.049724
         8         6         7        36     9        0.000000       -0.033863         1    ;  uncertainty k = 0.269290
         8         6         7        36     9      180.000000        2.879315         2    ;  uncertainty k = 0.161529
         8         6         7        36     9        0.000000        0.425590         3    ;  uncertainty k = 0.091001
         8         6         7        36     9      180.000000        0.264793         4    ;  uncertainty k = 0.049724
         8         6         7        37     9        0.000000       -0.033863         1    ;  uncertainty k = 0.269290
         8         6         7        37     9      180.000000        2.879315         2    ;  uncertainty k = 0.161529
         8         6         7        37     9        0.000000        0.425590         3    ;  uncertainty k = 0.091001
         8         6         7        37     9      180.000000        0.264793         4    ;  uncertainty k = 0.049724
        10        11        12        13     9        0.000000       -1.986982         1    ;  uncertainty k = 1.131584
        10        11        12        13     9      180.000000        0.974419         2    ;  uncertainty k = 0.865256
        10        11        12        13     9        0.000000        1.658617         3    ;  uncertainty k = 0.387464
        10        11        12        13     9      180.000000       -0.170489         4    ;  uncertainty k = 0.236445
        10        11        12        16     9        0.000000       -0.248946         1    ;  uncertainty k = 1.669285
        10        11        12        16     9      180.000000        6.161829         2    ;  uncertainty k = 1.110762
        10        11        12        16     9        0.000000        0.670927         3    ;  uncertainty k = 0.347090
        10        11        12        16     9      180.000000       -1.488831         4    ;  uncertainty k = 0.506459
        10        11        12        43     9        0.000000        0.565925         1    ;  uncertainty k = 0.856652
        10        11        12        43     9      180.000000        1.324272         2    ;  uncertainty k = 0.513615
        10        11        12        43     9        0.000000        1.171168         3    ;  uncertainty k = 0.217600
        10        11        12        43     9      180.000000       -0.072433         4    ;  uncertainty k = 0.184790
        10        17        16        12     9        0.000000       -0.248945         1    ;  uncertainty k = 1.669287
        10        17        16        12     9      180.000000        6.161828         2    ;  uncertainty k = 1.110762
        10        17        16        12     9        0.000000        0.670927         3    ;  uncertainty k = 0.347090
        10        17        16        12     9      180.000000       -1.488831         4    ;  uncertainty k = 0.506459
        10        17        16        15     9        0.000000       -1.986983         1    ;  uncertainty k = 1.131583
        10        17        16        15     9      180.000000        0.974418         2    ;  uncertainty k = 0.865255
        10        17        16        15     9        0.000000        1.658617         3    ;  uncertainty k = 0.387464
        10        17        16        15     9      180.000000       -0.170489         4    ;  uncertainty k = 0.236446
        10        17        16        48     9        0.000000        0.565925         1    ;  uncertainty k = 0.856650
        10        17        16        48     9      180.000000        1.324272         2    ;  uncertainty k = 0.513613
        10        17        16        48     9        0.000000        1.171168         3    ;  uncertainty k = 0.217600
        10        17        16        48     9      180.000000       -0.072433         4    ;  uncertainty k = 0.184790
        11        10        17        16     9        0.000000        0.409930         1    ;  uncertainty k = 1.033844
        11        10        17        16     9      180.000000        1.423324         2    ;  uncertainty k = 1.181230
        11        10        17        16     9        0.000000        0.860226         3    ;  uncertainty k = 0.332034
        11        10        17        16     9      180.000000        0.010765         4    ;  uncertainty k = 0.168707
        11        10        17        49     9        0.000000       -2.106814         1    ;  uncertainty k = 0.722683
        11        10        17        49     9      180.000000        1.271151         2    ;  uncertainty k = 0.391417
        11        10        17        49     9        0.000000        1.144990         3    ;  uncertainty k = 0.081015
        11        10        17        49     9      180.000000        0.249969         4    ;  uncertainty k = 0.124009
        11        10        17        50     9        0.000000       -2.106814         1    ;  uncertainty k = 0.722683
        11        10        17        50     9      180.000000        1.271151         2    ;  uncertainty k = 0.391417
        11        10        17        50     9        0.000000        1.144990         3    ;  uncertainty k = 0.081015
        11        10        17        50     9      180.000000        0.249969         4    ;  uncertainty k = 0.124009
        11        12        13        14     9        0.000000       -2.607420         1    ;  uncertainty k = 0.995424
        11        12        13        14     9      180.000000        0.022076         2    ;  uncertainty k = 0.727033
        11        12        13        14     9        0.000000        1.612970         3    ;  uncertainty k = 0.235291
        11        12        13        14     9      180.000000       -0.185713         4    ;  uncertainty k = 0.112586
        11        12        13        44     9        0.000000       -0.498818         1    ;  uncertainty k = 0.107247
        11        12        13        44     9      180.000000       -0.409706         2    ;  uncertainty k = 0.197166
        11        12        13        44     9        0.000000        0.564543         3    ;  uncertainty k = 0.186998
        11        12        13        44     9      180.000000       -0.072177         4    ;  uncertainty k = 0.062323
        11        12        13        45     9        0.000000       -0.498818         1    ;  uncertainty k = 0.107247
        11        12        13        45     9      180.000000       -0.409706         2    ;  uncertainty k = 0.197166
        11        12        13        45     9        0.000000        0.564543         3    ;  uncertainty k = 0.186998
        11        12        13        45     9      180.000000       -0.072177         4    ;  uncertainty k = 0.062323
        11        12        16        15     9        0.000000       -3.847150         1    ;  uncertainty k = 0.842081
        11        12        16        15     9      180.000000        0.994502         2    ;  uncertainty k = 1.017626
        11        12        16        15     9        0.000000        1.189094         3    ;  uncertainty k = 0.581588
        11        12        16        15     9      180.000000       -0.416044         4    ;  uncertainty k = 0.334399
        11        12        16        17     9        0.000000       -3.896618         1    ;  uncertainty k = 1.087275
        11        12        16        17     9      180.000000        1.035025         2    ;  uncertainty k = 1.026286
        11        12        16        17     9        0.000000        1.207838         3    ;  uncertainty k = 0.671623
        11        12        16        17     9      180.000000       -0.436931         4    ;  uncertainty k = 0.343366
        11        12        16        48     9        0.000000       -1.223112         1    ;  uncertainty k = 0.611377
        11        12        16        48     9      180.000000        0.489634         2    ;  uncertainty k = 0.414978
        11        12        16        48     9        0.000000        0.997353         3    ;  uncertainty k = 0.241670
        11        12        16        48     9      180.000000        0.066778         4    ;  uncertainty k = 0.087125
        12        11        10        17     9        0.000000        0.409929         1    ;  uncertainty k = 1.033846
        12        11        10        17     9      180.000000        1.423324         2    ;  uncertainty k = 1.181232
        12        11        10        17     9        0.000000        0.860226         3    ;  uncertainty k = 0.332035
        12        11        10        17     9      180.000000        0.010765         4    ;  uncertainty k = 0.168708
        12        13        14        15     9        0.000000       -0.578347         1    ;  uncertainty k = 0.919747
        12        13        14        15     9      180.000000        0.242792         2    ;  uncertainty k = 0.701024
        12        13        14        15     9        0.000000        0.797027         3    ;  uncertainty k = 0.218418
        12        13        14        15     9      180.000000        0.154107         4    ;  uncertainty k = 0.246781
        12        13        14        18     9        0.000000       -0.209381         1    ;  uncertainty k = 0.966461
        12        13        14        18     9      180.000000       -0.541701         2    ;  uncertainty k = 0.373893
        12        13        14        18     9        0.000000        0.202801         3    ;  uncertainty k = 0.362931
        12        13        14        18     9      180.000000        0.702312         4    ;  uncertainty k = 0.132281
        12        16        15        14     9        0.000000       -0.736764         1    ;  uncertainty k = 0.633515
        12        16        15        14     9      180.000000        6.025412         2    ;  uncertainty k = 1.000861
        12        16        15        14     9        0.000000        0.435197         3    ;  uncertainty k = 0.297546
        12        16        15        14     9      180.000000       -1.170163         4    ;  uncertainty k = 0.204855
        12        16        15        46     9        0.000000        0.480411         1    ;  uncertainty k = 0.492791
        12        16        15        46     9      180.000000       -1.104496         2    ;  uncertainty k = 0.672329
        12        16        15        46     9        0.000000       -0.270073         3    ;  uncertainty k = 0.170671
        12        16        15        46     9      180.000000       -0.013160         4    ;  uncertainty k = 0.174221
        12        16        15        47     9        0.000000        0.480411         1    ;  uncertainty k = 0.492791
        12        16        15        47     9      180.000000       -1.104496         2    ;  uncertainty k = 0.672329
        12        16        15        47     9        0.000000       -0.270073         3    ;  uncertainty k = 0.170671
        12        16        15        47     9      180.000000       -0.013160         4    ;  uncertainty k = 0.174221
        12        16        17        49     9        0.000000        0.646621         1    ;  uncertainty k = 0.517783
        12        16        17        49     9      180.000000       -1.099688         2    ;  uncertainty k = 0.743824
        12        16        17        49     9        0.000000       -0.334779         3    ;  uncertainty k = 0.213643
        12        16        17        49     9      180.000000       -0.018734         4    ;  uncertainty k = 0.206092
        12        16        17        50     9        0.000000        0.646621         1    ;  uncertainty k = 0.517783
        12        16        17        50     9      180.000000       -1.099688         2    ;  uncertainty k = 0.743824
        12        16        17        50     9        0.000000       -0.334779         3    ;  uncertainty k = 0.213643
        12        16        17        50     9      180.000000       -0.018734         4    ;  uncertainty k = 0.206092
        13        12        11        41     9        0.000000       -0.670734         1    ;  uncertainty k = 0.233995
        13        12        11        41     9      180.000000       -0.386310         2    ;  uncertainty k = 0.258590
        13        12        11        41     9        0.000000        0.557637         3    ;  uncertainty k = 0.179621
        13        12        11        41     9      180.000000       -0.081826         4    ;  uncertainty k = 0.095492
        13        12        11        42     9        0.000000       -0.670734         1    ;  uncertainty k = 0.233995
        13        12        11        42     9      180.000000       -0.386310         2    ;  uncertainty k = 0.258590
        13        12        11        42     9        0.000000        0.557637         3    ;  uncertainty k = 0.179621
        13        12        11        42     9      180.000000       -0.081826         4    ;  uncertainty k = 0.095492
        13        12        16        15     9        0.000000       -3.717091         1    ;  uncertainty k = 0.646014
        13        12        16        15     9      180.000000        0.952705         2    ;  uncertainty k = 0.984304
        13        12        16        15     9        0.000000        1.178983         3    ;  uncertainty k = 0.499657
        13        12        16        15     9      180.000000       -0.410261         4    ;  uncertainty k = 0.338854
        13        12        16        17     9        0.000000       -3.847151         1    ;  uncertainty k = 0.842082
        13        12        16        17     9      180.000000        0.994504         2    ;  uncertainty k = 1.017625
        13        12        16        17     9        0.000000        1.189094         3    ;  uncertainty k = 0.581588
        13        12        16        17     9      180.000000       -0.416044         4    ;  uncertainty k = 0.334399
        13        12        16        48     9        0.000000       -1.291634         1    ;  uncertainty k = 0.560343
        13        12        16        48     9      180.000000        0.594321         2    ;  uncertainty k = 0.368266
        13        12        16        48     9        0.000000        1.030260         3    ;  uncertainty k = 0.246250
        13        12        16        48     9      180.000000        0.081405         4    ;  uncertainty k = 0.059901
        13        14        15        16     9        0.000000       -0.578347         1    ;  uncertainty k = 0.919747
        13        14        15        16     9      180.000000        0.242792         2    ;  uncertainty k = 0.701025
        13        14        15        16     9        0.000000        0.797027         3    ;  uncertainty k = 0.218419
        13        14        15        16     9      180.000000        0.154107         4    ;  uncertainty k = 0.246781
        13        14        15        46     9        0.000000       -1.810377         1    ;  uncertainty k = 0.576097
        13        14        15        46     9      180.000000        1.086382         2    ;  uncertainty k = 0.426528
        13        14        15        46     9        0.000000        1.250141         3    ;  uncertainty k = 0.136647
        13        14        15        46     9      180.000000        0.301768         4    ;  uncertainty k = 0.117464
        13        14        15        47     9        0.000000       -1.810377         1    ;  uncertainty k = 0.576097
        13        14        15        47     9      180.000000        1.086382         2    ;  uncertainty k = 0.426528
        13        14        15        47     9        0.000000        1.250141         3    ;  uncertainty k = 0.136647
        13        14        15        47     9      180.000000        0.301768         4    ;  uncertainty k = 0.117464
        13        14        18        19     9        0.000000        6.357003         1    ;  uncertainty k = 0.547606
        13        14        18        19     9      180.000000       16.962734         2    ;  uncertainty k = 0.212954
        13        14        18        19     9        0.000000        0.267170         3    ;  uncertainty k = 0.202910
        13        14        18        19     9      180.000000       -1.190649         4    ;  uncertainty k = 0.124612
        13        14        18        20     9        0.000000        3.407849         1    ;  uncertainty k = 1.339110
        13        14        18        20     9      180.000000        8.996075         2    ;  uncertainty k = 0.412445
        13        14        18        20     9        0.000000        1.595044         3    ;  uncertainty k = 0.230309
        13        14        18        20     9      180.000000       -0.020267         4    ;  uncertainty k = 0.371981
        14        13        12        16     9        0.000000       -0.736762         1    ;  uncertainty k = 0.633517
        14        13        12        16     9      180.000000        6.025413         2    ;  uncertainty k = 1.000861
        14        13        12        16     9        0.000000        0.435196         3    ;  uncertainty k = 0.297545
        14        13        12        16     9      180.000000       -1.170163         4    ;  uncertainty k = 0.204856
        14        13        12        43     9        0.000000        0.123161         1    ;  uncertainty k = 0.632773
        14        13        12        43     9      180.000000        0.836162         2    ;  uncertainty k = 0.434791
        14        13        12        43     9        0.000000        1.098159         3    ;  uncertainty k = 0.161086
        14        13        12        43     9      180.000000       -0.066245         4    ;  uncertainty k = 0.104331
        14        15        16        17     9        0.000000       -2.607419         1    ;  uncertainty k = 0.995424
        14        15        16        17     9      180.000000        0.022076         2    ;  uncertainty k = 0.727033
        14        15        16        17     9        0.000000        1.612970         3    ;  uncertainty k = 0.235290
        14        15        16        17     9      180.000000       -0.185713         4    ;  uncertainty k = 0.112586
        14        15        16        48     9        0.000000        0.123160         1    ;  uncertainty k = 0.632774
        14        15        16        48     9      180.000000        0.836161         2    ;  uncertainty k = 0.434791
        14        15        16        48     9        0.000000        1.098159         3    ;  uncertainty k = 0.161086
        14        15        16        48     9      180.000000       -0.066245         4    ;  uncertainty k = 0.104331
        14        18        20        21     9        0.000000        1.851367         1    ;  uncertainty k = 1.259576
        14        18        20        21     9      180.000000        5.752965         2    ;  uncertainty k = 0.175508
        14        18        20        21     9        0.000000        0.162215         3    ;  uncertainty k = 0.318225
        14        18        20        21     9      180.000000        0.484794         4    ;  uncertainty k = 0.155871
        14        18        20        26     9        0.000000        3.709916         1    ;  uncertainty k = 1.132205
        14        18        20        26     9      180.000000        5.907216         2    ;  uncertainty k = 0.295098
        14        18        20        26     9        0.000000        0.162296         3    ;  uncertainty k = 0.106376
        14        18        20        26     9      180.000000        0.490410         4    ;  uncertainty k = 0.140372
        15        14        13        44     9        0.000000       -1.810377         1    ;  uncertainty k = 0.576098
        15        14        13        44     9      180.000000        1.086382         2    ;  uncertainty k = 0.426526
        15        14        13        44     9        0.000000        1.250141         3    ;  uncertainty k = 0.136647
        15        14        13        44     9      180.000000        0.301768         4    ;  uncertainty k = 0.117464
        15        14        13        45     9        0.000000       -1.810377         1    ;  uncertainty k = 0.576098
        15        14        13        45     9      180.000000        1.086382         2    ;  uncertainty k = 0.426526
        15        14        13        45     9        0.000000        1.250141         3    ;  uncertainty k = 0.136647
        15        14        13        45     9      180.000000        0.301768         4    ;  uncertainty k = 0.117464
        15        14        18        19     9        0.000000        6.357001         1    ;  uncertainty k = 0.547606
        15        14        18        19     9      180.000000       16.962734         2    ;  uncertainty k = 0.212955
        15        14        18        19     9        0.000000        0.267170         3    ;  uncertainty k = 0.202910
        15        14        18        19     9      180.000000       -1.190649         4    ;  uncertainty k = 0.124611
        15        14        18        20     9        0.000000        3.407847         1    ;  uncertainty k = 1.339110
        15        14        18        20     9      180.000000        8.996074         2    ;  uncertainty k = 0.412445
        15        14        18        20     9        0.000000        1.595043         3    ;  uncertainty k = 0.230310
        15        14        18        20     9      180.000000       -0.020268         4    ;  uncertainty k = 0.371981
        15        16        12        43     9        0.000000       -1.291633         1    ;  uncertainty k = 0.560343
        15        16        12        43     9      180.000000        0.594321         2    ;  uncertainty k = 0.368268
        15        16        12        43     9        0.000000        1.030260         3    ;  uncertainty k = 0.246250
        15        16        12        43     9      180.000000        0.081405         4    ;  uncertainty k = 0.059900
        15        16        17        49     9        0.000000       -0.670733         1    ;  uncertainty k = 0.233996
        15        16        17        49     9      180.000000       -0.386309         2    ;  uncertainty k = 0.258591
        15        16        17        49     9        0.000000        0.557638         3    ;  uncertainty k = 0.179621
        15        16        17        49     9      180.000000       -0.081826         4    ;  uncertainty k = 0.095492
        15        16        17        50     9        0.000000       -0.670733         1    ;  uncertainty k = 0.233996
        15        16        17        50     9      180.000000       -0.386309         2    ;  uncertainty k = 0.258591
        15        16        17        50     9        0.000000        0.557638         3    ;  uncertainty k = 0.179621
        15        16        17        50     9      180.000000       -0.081826         4    ;  uncertainty k = 0.095492
        16        12        11        41     9        0.000000        0.646621         1    ;  uncertainty k = 0.517781
        16        12        11        41     9      180.000000       -1.099689         2    ;  uncertainty k = 0.743823
        16        12        11        41     9        0.000000       -0.334778         3    ;  uncertainty k = 0.213644
        16        12        11        41     9      180.000000       -0.018734         4    ;  uncertainty k = 0.206091
        16        12        11        42     9        0.000000        0.646621         1    ;  uncertainty k = 0.517781
        16        12        11        42     9      180.000000       -1.099689         2    ;  uncertainty k = 0.743823
        16        12        11        42     9        0.000000       -0.334778         3    ;  uncertainty k = 0.213644
        16        12        11        42     9      180.000000       -0.018734         4    ;  uncertainty k = 0.206091
        16        12        13        44     9        0.000000        0.480411         1    ;  uncertainty k = 0.492791
        16        12        13        44     9      180.000000       -1.104495         2    ;  uncertainty k = 0.672328
        16        12        13        44     9        0.000000       -0.270073         3    ;  uncertainty k = 0.170671
        16        12        13        44     9      180.000000       -0.013161         4    ;  uncertainty k = 0.174221
        16        12        13        45     9        0.000000        0.480411         1    ;  uncertainty k = 0.492791
        16        12        13        45     9      180.000000       -1.104495         2    ;  uncertainty k = 0.672328
        16        12        13        45     9        0.000000       -0.270073         3    ;  uncertainty k = 0.170671
        16        12        13        45     9      180.000000       -0.013161         4    ;  uncertainty k = 0.174221
        16        15        14        18     9        0.000000       -0.209380         1    ;  uncertainty k = 0.966459
        16        15        14        18     9      180.000000       -0.541701         2    ;  uncertainty k = 0.373894
        16        15        14        18     9        0.000000        0.202801         3    ;  uncertainty k = 0.362931
        16        15        14        18     9      180.000000        0.702311         4    ;  uncertainty k = 0.132281
        17        10        11        41     9        0.000000       -2.106813         1    ;  uncertainty k = 0.722683
        17        10        11        41     9      180.000000        1.271153         2    ;  uncertainty k = 0.391418
        17        10        11        41     9        0.000000        1.144989         3    ;  uncertainty k = 0.081016
        17        10        11        41     9      180.000000        0.249969         4    ;  uncertainty k = 0.124009
        17        10        11        42     9        0.000000       -2.106813         1    ;  uncertainty k = 0.722683
        17        10        11        42     9      180.000000        1.271153         2    ;  uncertainty k = 0.391418
        17        10        11        42     9        0.000000        1.144989         3    ;  uncertainty k = 0.081016
        17        10        11        42     9      180.000000        0.249969         4    ;  uncertainty k = 0.124009
        17        16        12        43     9        0.000000       -1.223110         1    ;  uncertainty k = 0.611378
        17        16        12        43     9      180.000000        0.489635         2    ;  uncertainty k = 0.414979
        17        16        12        43     9        0.000000        0.997353         3    ;  uncertainty k = 0.241669
        17        16        12        43     9      180.000000        0.066778         4    ;  uncertainty k = 0.087125
        17        16        15        46     9        0.000000       -0.498818         1    ;  uncertainty k = 0.107248
        17        16        15        46     9      180.000000       -0.409705         2    ;  uncertainty k = 0.197166
        17        16        15        46     9        0.000000        0.564544         3    ;  uncertainty k = 0.186998
        17        16        15        46     9      180.000000       -0.072177         4    ;  uncertainty k = 0.062323
        17        16        15        47     9        0.000000       -0.498818         1    ;  uncertainty k = 0.107248
        17        16        15        47     9      180.000000       -0.409705         2    ;  uncertainty k = 0.197166
        17        16        15        47     9        0.000000        0.564544         3    ;  uncertainty k = 0.186998
        17        16        15        47     9      180.000000       -0.072177         4    ;  uncertainty k = 0.062323
        18        14        13        44     9        0.000000        1.416105         1    ;  uncertainty k = 0.719804
        18        14        13        44     9      180.000000        0.065610         2    ;  uncertainty k = 0.093474
        18        14        13        44     9        0.000000        0.002232         3    ;  uncertainty k = 0.089343
        18        14        13        44     9      180.000000        0.277826         4    ;  uncertainty k = 0.071341
        18        14        13        45     9        0.000000        1.416105         1    ;  uncertainty k = 0.719804
        18        14        13        45     9      180.000000        0.065610         2    ;  uncertainty k = 0.093474
        18        14        13        45     9        0.000000        0.002232         3    ;  uncertainty k = 0.089343
        18        14        13        45     9      180.000000        0.277826         4    ;  uncertainty k = 0.071341
        18        14        15        46     9        0.000000        1.416105         1    ;  uncertainty k = 0.719804
        18        14        15        46     9      180.000000        0.065610         2    ;  uncertainty k = 0.093472
        18        14        15        46     9        0.000000        0.002232         3    ;  uncertainty k = 0.089343
        18        14        15        46     9      180.000000        0.277826         4    ;  uncertainty k = 0.071341
        18        14        15        47     9        0.000000        1.416105         1    ;  uncertainty k = 0.719804
        18        14        15        47     9      180.000000        0.065610         2    ;  uncertainty k = 0.093472
        18        14        15        47     9        0.000000        0.002232         3    ;  uncertainty k = 0.089343
        18        14        15        47     9      180.000000        0.277826         4    ;  uncertainty k = 0.071341
        18        20        21        22     9        0.000000        0.086680         1    ;  uncertainty k = 0.322670
        18        20        21        22     9      180.000000       11.407953         2    ;  uncertainty k = 0.599565
        18        20        21        22     9        0.000000        1.385161         3    ;  uncertainty k = 0.187005
        18        20        21        22     9      180.000000        1.483635         4    ;  uncertainty k = 0.318096
        18        20        21        23     9        0.000000        0.114462         1    ;  uncertainty k = 0.659063
        18        20        21        23     9      180.000000        6.312817         2    ;  uncertainty k = 0.577136
        18        20        21        23     9        0.000000        1.356865         3    ;  uncertainty k = 0.282275
        18        20        21        23     9      180.000000        1.940646         4    ;  uncertainty k = 0.196893
        18        20        26        25     9        0.000000        0.266109         1    ;  uncertainty k = 0.262230
        18        20        26        25     9      180.000000        6.791976         2    ;  uncertainty k = 0.556220
        18        20        26        25     9        0.000000        1.305735         3    ;  uncertainty k = 0.332052
        18        20        26        25     9      180.000000        1.750369         4    ;  uncertainty k = 0.249436
        18        20        26        27     9        0.000000       -0.079088         1    ;  uncertainty k = 0.890587
        18        20        26        27     9      180.000000       10.037557         2    ;  uncertainty k = 0.622174
        18        20        26        27     9        0.000000        1.315712         3    ;  uncertainty k = 0.504290
        18        20        26        27     9      180.000000        1.286094         4    ;  uncertainty k = 0.361801
        19        18        20        21     9        0.000000       -1.928785         1    ;  uncertainty k = 0.969843
        19        18        20        21     9      180.000000        5.038791         2    ;  uncertainty k = 0.443316
        19        18        20        21     9        0.000000        0.869540         3    ;  uncertainty k = 0.424298
        19        18        20        21     9      180.000000        0.459984         4    ;  uncertainty k = 0.229979
        19        18        20        26     9        0.000000       -3.997731         1    ;  uncertainty k = 0.906468
        19        18        20        26     9      180.000000        5.945518         2    ;  uncertainty k = 0.542758
        19        18        20        26     9        0.000000        0.551178         3    ;  uncertainty k = 0.549645
        19        18        20        26     9      180.000000        0.513462         4    ;  uncertainty k = 0.329406
        20        21        23        24     9        0.000000        0.011529         1    ;  uncertainty k = 0.194930
        20        21        23        24     9      180.000000        8.787238         2    ;  uncertainty k = 0.361867
        20        21        23        24     9        0.000000        0.106727         3    ;  uncertainty k = 0.344316
        20        21        23        24     9      180.000000        1.205900         4    ;  uncertainty k = 0.276948
        20        21        23        51     9        0.000000       -0.168918         1    ;  uncertainty k = 0.390695
        20        21        23        51     9      180.000000        5.695522         2    ;  uncertainty k = 0.674905
        20        21        23        51     9        0.000000        1.129293         3    ;  uncertainty k = 0.356557
        20        21        23        51     9      180.000000        1.505167         4    ;  uncertainty k = 0.216214
        20        26        25        24     9        0.000000       -0.242508         1    ;  uncertainty k = 0.315737
        20        26        25        24     9      180.000000        9.681246         2    ;  uncertainty k = 0.496020
        20        26        25        24     9        0.000000        0.240132         3    ;  uncertainty k = 0.161668
        20        26        25        24     9      180.000000        1.271249         4    ;  uncertainty k = 0.330409
        20        26        25        53     9        0.000000       -0.007148         1    ;  uncertainty k = 0.345797
        20        26        25        53     9      180.000000        6.393420         2    ;  uncertainty k = 0.363299
        20        26        25        53     9        0.000000        1.235598         3    ;  uncertainty k = 0.195907
        20        26        25        53     9      180.000000        1.608512         4    ;  uncertainty k = 0.191460
        20        26        27        28     9        0.000000       -1.535069         1    ;  uncertainty k = 0.563416
        20        26        27        28     9      180.000000        4.499715         2    ;  uncertainty k = 0.535585
        20        26        27        28     9        0.000000        0.637687         3    ;  uncertainty k = 0.351002
        20        26        27        28     9      180.000000       -0.090463         4    ;  uncertainty k = 0.183190
        20        26        27        31     9        0.000000       -1.535069         1    ;  uncertainty k = 0.563416
        20        26        27        31     9      180.000000        4.499715         2    ;  uncertainty k = 0.535585
        20        26        27        31     9        0.000000        0.637687         3    ;  uncertainty k = 0.351002
        20        26        27        31     9      180.000000       -0.090463         4    ;  uncertainty k = 0.183190
        21        20        26        25     9        0.000000       -0.242351         1    ;  uncertainty k = 0.420152
        21        20        26        25     9      180.000000        6.983637         2    ;  uncertainty k = 0.869640
        21        20        26        25     9        0.000000        0.325219         3    ;  uncertainty k = 0.349953
        21        20        26        25     9      180.000000        1.307286         4    ;  uncertainty k = 0.335099
        21        20        26        27     9        0.000000        0.337460         1    ;  uncertainty k = 0.391009
        21        20        26        27     9      180.000000       10.376661         2    ;  uncertainty k = 0.372710
        21        20        26        27     9        0.000000        1.330823         3    ;  uncertainty k = 0.417773
        21        20        26        27     9      180.000000        1.431413         4    ;  uncertainty k = 0.199546
        21        23        24        25     9        0.000000       -0.033963         1    ;  uncertainty k = 0.110226
        21        23        24        25     9      180.000000       13.984025         2    ;  uncertainty k = 0.340845
        21        23        24        25     9        0.000000       -1.042557         3    ;  uncertainty k = 0.357764
        21        23        24        25     9      180.000000        0.802609         4    ;  uncertainty k = 0.247483
        21        23        24        52     9        0.000000       -0.104379         1    ;  uncertainty k = 0.141872
        21        23        24        52     9      180.000000        7.264410         2    ;  uncertainty k = 0.340044
        21        23        24        52     9        0.000000        1.287730         3    ;  uncertainty k = 0.202339
        21        23        24        52     9      180.000000        1.653500         4    ;  uncertainty k = 0.150967
        22        21        20        26     9        0.000000        0.033254         1    ;  uncertainty k = 0.304862
        22        21        20        26     9      180.000000       11.302610         2    ;  uncertainty k = 0.302059
        22        21        20        26     9        0.000000        1.679241         3    ;  uncertainty k = 0.164696
        22        21        20        26     9      180.000000        1.555515         4    ;  uncertainty k = 0.157671
        22        21        23        24     9        0.000000       -0.080232         1    ;  uncertainty k = 0.461474
        22        21        23        24     9      180.000000       13.203682         2    ;  uncertainty k = 0.340325
        22        21        23        24     9        0.000000        1.295972         3    ;  uncertainty k = 0.165134
        22        21        23        24     9      180.000000        1.523069         4    ;  uncertainty k = 0.233966
        22        21        23        51     9        0.000000       -0.128834         1    ;  uncertainty k = 0.456012
        22        21        23        51     9      180.000000        9.556552         2    ;  uncertainty k = 0.491147
        22        21        23        51     9        0.000000        0.767278         3    ;  uncertainty k = 0.273034
        22        21        23        51     9      180.000000        1.024642         4    ;  uncertainty k = 0.200947
        23        21        20        26     9        0.000000       -0.325541         1    ;  uncertainty k = 0.355388
        23        21        20        26     9      180.000000        6.052960         2    ;  uncertainty k = 0.864094
        23        21        20        26     9        0.000000        0.684668         3    ;  uncertainty k = 0.181781
        23        21        20        26     9      180.000000        1.492448         4    ;  uncertainty k = 0.353261
        23        24        25        26     9        0.000000       -0.096416         1    ;  uncertainty k = 0.180639
        23        24        25        26     9      180.000000       13.532949         2    ;  uncertainty k = 0.268821
        23        24        25        26     9        0.000000       -0.934273         3    ;  uncertainty k = 0.410646
        23        24        25        26     9      180.000000        0.824229         4    ;  uncertainty k = 0.239882
        23        24        25        53     9        0.000000        0.090918         1    ;  uncertainty k = 0.138952
        23        24        25        53     9      180.000000        7.803070         2    ;  uncertainty k = 0.340548
        23        24        25        53     9        0.000000        1.340932         3    ;  uncertainty k = 0.288750
        23        24        25        53     9      180.000000        1.895629         4    ;  uncertainty k = 0.190611
        24        25        26        27     9        0.000000        0.460449         1    ;  uncertainty k = 0.322983
        24        25        26        27     9      180.000000       11.387678         2    ;  uncertainty k = 0.346993
        24        25        26        27     9        0.000000        0.982542         3    ;  uncertainty k = 0.164036
        24        25        26        27     9      180.000000        1.624026         4    ;  uncertainty k = 0.138288
        25        24        23        51     9        0.000000        0.058868         1    ;  uncertainty k = 0.276257
        25        24        23        51     9      180.000000        7.716329         2    ;  uncertainty k = 0.326791
        25        24        23        51     9        0.000000        1.437490         3    ;  uncertainty k = 0.272563
        25        24        23        51     9      180.000000        1.759669         4    ;  uncertainty k = 0.126329
        25        26        27        28     9        0.000000        2.394481         1    ;  uncertainty k = 0.740964
        25        26        27        28     9      180.000000        4.329586         2    ;  uncertainty k = 0.263950
        25        26        27        28     9        0.000000        0.391713         3    ;  uncertainty k = 0.190597
        25        26        27        28     9      180.000000        0.083730         4    ;  uncertainty k = 0.150415
        25        26        27        31     9        0.000000        2.394481         1    ;  uncertainty k = 0.740964
        25        26        27        31     9      180.000000        4.329586         2    ;  uncertainty k = 0.263950
        25        26        27        31     9        0.000000        0.391713         3    ;  uncertainty k = 0.190597
        25        26        27        31     9      180.000000        0.083730         4    ;  uncertainty k = 0.150415
        26        25        24        52     9        0.000000       -0.010723         1    ;  uncertainty k = 0.237400
        26        25        24        52     9      180.000000        7.958978         2    ;  uncertainty k = 0.442749
        26        25        24        52     9        0.000000        1.209101         3    ;  uncertainty k = 0.164443
        26        25        24        52     9      180.000000        1.723739         4    ;  uncertainty k = 0.144208
        26        27        28        29     9        0.000000        0.797559         1    ;  uncertainty k = 2.309877
        26        27        28        29     9      180.000000       14.114446         2    ;  uncertainty k = 0.418682
        26        27        28        29     9        0.000000        1.402880         3    ;  uncertainty k = 0.442527
        26        27        28        29     9      180.000000        0.112613         4    ;  uncertainty k = 0.206946
        26        27        31        30     9        0.000000        0.797559         1    ;  uncertainty k = 2.309877
        26        27        31        30     9      180.000000       14.114446         2    ;  uncertainty k = 0.418682
        26        27        31        30     9        0.000000        1.402880         3    ;  uncertainty k = 0.442527
        26        27        31        30     9      180.000000        0.112613         4    ;  uncertainty k = 0.206946
        27        26        25        53     9        0.000000        0.135211         1    ;  uncertainty k = 0.398577
        27        26        25        53     9      180.000000        8.519176         2    ;  uncertainty k = 0.273746
        27        26        25        53     9        0.000000        0.803950         3    ;  uncertainty k = 0.224881
        27        26        25        53     9      180.000000        1.348903         4    ;  uncertainty k = 0.152778
        27        28        29        30     9        0.000000        0.015899         1    ;  uncertainty k = 0.518603
        27        28        29        30     9      180.000000       24.370143         2    ;  uncertainty k = 0.366584
        27        28        29        30     9        0.000000       -9.715998         3    ;  uncertainty k = 1.915613
        27        28        29        30     9      180.000000        2.426696         4    ;  uncertainty k = 0.655510
        27        28        29        54     9        0.000000        0.232294         1    ;  uncertainty k = 0.741580
        27        28        29        54     9      180.000000       22.028694         2    ;  uncertainty k = 0.487024
        27        28        29        54     9        0.000000        1.455895         3    ;  uncertainty k = 0.397708
        27        28        29        54     9      180.000000        1.220382         4    ;  uncertainty k = 0.604170
        27        31        30        29     9        0.000000        0.015899         1    ;  uncertainty k = 0.518603
        27        31        30        29     9      180.000000       24.370143         2    ;  uncertainty k = 0.366584
        27        31        30        29     9        0.000000       -9.715998         3    ;  uncertainty k = 1.915613
        27        31        30        29     9      180.000000        2.426696         4    ;  uncertainty k = 0.655510
        27        31        30        55     9        0.000000        0.232294         1    ;  uncertainty k = 0.741580
        27        31        30        55     9      180.000000       22.028694         2    ;  uncertainty k = 0.487024
        27        31        30        55     9        0.000000        1.455895         3    ;  uncertainty k = 0.397708
        27        31        30        55     9      180.000000        1.220382         4    ;  uncertainty k = 0.604170
        28        27        31        30     9        0.000000       -0.822391         1    ;  uncertainty k = 0.769863
        28        27        31        30     9      180.000000       22.038729         2    ;  uncertainty k = 0.271382
        28        27        31        30     9        0.000000       -8.305140         3    ;  uncertainty k = 1.269833
        28        27        31        30     9      180.000000        1.298759         4    ;  uncertainty k = 0.596553
        28        29        30        31     9        0.000000       -0.480158         1    ;  uncertainty k = 0.926462
        28        29        30        31     9      180.000000       16.735216         2    ;  uncertainty k = 1.309662
        28        29        30        31     9        0.000000      -12.155219         3    ;  uncertainty k = 1.939945
        28        29        30        31     9      180.000000        1.991293         4    ;  uncertainty k = 0.750423
        28        29        30        55     9        0.000000        0.154897         1    ;  uncertainty k = 0.970262
        28        29        30        55     9      180.000000       11.842300         2    ;  uncertainty k = 0.614370
        28        29        30        55     9        0.000000        0.922189         3    ;  uncertainty k = 0.757887
        28        29        30        55     9      180.000000        0.630945         4    ;  uncertainty k = 0.172002
        29        28        27        31     9        0.000000       -0.822391         1    ;  uncertainty k = 0.769863
        29        28        27        31     9      180.000000       22.038729         2    ;  uncertainty k = 0.271382
        29        28        27        31     9        0.000000       -8.305140         3    ;  uncertainty k = 1.269833
        29        28        27        31     9      180.000000        1.298759         4    ;  uncertainty k = 0.596553
        31        30        29        54     9        0.000000        0.154897         1    ;  uncertainty k = 0.970262
        31        30        29        54     9      180.000000       11.842300         2    ;  uncertainty k = 0.614370
        31        30        29        54     9        0.000000        0.922189         3    ;  uncertainty k = 0.757887
        31        30        29        54     9      180.000000        0.630945         4    ;  uncertainty k = 0.172002
        41        11        12        43     9        0.000000        0.359872         1    ;  uncertainty k = 0.316166
        41        11        12        43     9      180.000000       -0.360044         2    ;  uncertainty k = 0.197279
        41        11        12        43     9        0.000000        0.364903         3    ;  uncertainty k = 0.128583
        41        11        12        43     9      180.000000       -0.036803         4    ;  uncertainty k = 0.081429
        42        11        12        43     9        0.000000        0.359872         1    ;  uncertainty k = 0.316166
        42        11        12        43     9      180.000000       -0.360044         2    ;  uncertainty k = 0.197279
        42        11        12        43     9        0.000000        0.364903         3    ;  uncertainty k = 0.128583
        42        11        12        43     9      180.000000       -0.036803         4    ;  uncertainty k = 0.081429
        43        12        13        44     9        0.000000        0.423998         1    ;  uncertainty k = 0.297943
        43        12        13        44     9      180.000000       -0.322771         2    ;  uncertainty k = 0.253711
        43        12        13        44     9        0.000000        0.343158         3    ;  uncertainty k = 0.128710
        43        12        13        44     9      180.000000       -0.041305         4    ;  uncertainty k = 0.061986
        43        12        13        45     9        0.000000        0.423998         1    ;  uncertainty k = 0.297943
        43        12        13        45     9      180.000000       -0.322771         2    ;  uncertainty k = 0.253711
        43        12        13        45     9        0.000000        0.343158         3    ;  uncertainty k = 0.128710
        43        12        13        45     9      180.000000       -0.041305         4    ;  uncertainty k = 0.061986
        43        12        16        48     9        0.000000        3.534566         1    ;  uncertainty k = 1.183407
        43        12        16        48     9      180.000000       -0.219654         2    ;  uncertainty k = 0.641097
        43        12        16        48     9        0.000000        0.578188         3    ;  uncertainty k = 0.579178
        43        12        16        48     9      180.000000        0.212498         4    ;  uncertainty k = 0.291708
        46        15        16        48     9        0.000000        0.424000         1    ;  uncertainty k = 0.297943
        46        15        16        48     9      180.000000       -0.322771         2    ;  uncertainty k = 0.253710
        46        15        16        48     9        0.000000        0.343158         3    ;  uncertainty k = 0.128710
        46        15        16        48     9      180.000000       -0.041305         4    ;  uncertainty k = 0.061986
        47        15        16        48     9        0.000000        0.424000         1    ;  uncertainty k = 0.297943
        47        15        16        48     9      180.000000       -0.322771         2    ;  uncertainty k = 0.253710
        47        15        16        48     9        0.000000        0.343158         3    ;  uncertainty k = 0.128710
        47        15        16        48     9      180.000000       -0.041305         4    ;  uncertainty k = 0.061986
        48        16        17        49     9        0.000000        0.359873         1    ;  uncertainty k = 0.316165
        48        16        17        49     9      180.000000       -0.360044         2    ;  uncertainty k = 0.197281
        48        16        17        49     9        0.000000        0.364903         3    ;  uncertainty k = 0.128582
        48        16        17        49     9      180.000000       -0.036803         4    ;  uncertainty k = 0.081429
        48        16        17        50     9        0.000000        0.359873         1    ;  uncertainty k = 0.316165
        48        16        17        50     9      180.000000       -0.360044         2    ;  uncertainty k = 0.197281
        48        16        17        50     9        0.000000        0.364903         3    ;  uncertainty k = 0.128582
        48        16        17        50     9      180.000000       -0.036803         4    ;  uncertainty k = 0.081429
        51        23        24        52     9        0.000000       -0.020811         1    ;  uncertainty k = 0.168739
        51        23        24        52     9      180.000000        7.628630         2    ;  uncertainty k = 0.494067
        51        23        24        52     9        0.000000       -0.419007         3    ;  uncertainty k = 0.338955
        51        23        24        52     9      180.000000        0.009969         4    ;  uncertainty k = 0.203192
        52        24        25        53     9        0.000000        0.041837         1    ;  uncertainty k = 0.123335
        52        24        25        53     9      180.000000        7.941958         2    ;  uncertainty k = 0.372063
        52        24        25        53     9        0.000000       -0.460822         3    ;  uncertainty k = 0.327229
        52        24        25        53     9      180.000000        0.152785         4    ;  uncertainty k = 0.182743
        54        29        30        55     9        0.000000       -0.942648         1    ;  uncertainty k = 1.117582
        54        29        30        55     9      180.000000        4.272735         2    ;  uncertainty k = 0.760818
        54        29        30        55     9        0.000000        1.314863         3    ;  uncertainty k = 0.353594
        54        29        30        55     9      180.000000        0.150448         4    ;  uncertainty k = 0.159865

[ dihedrals ] ; impropers
;       ai        aj        ak        al funct           phase               k        pn
         2         1         3         8     4      180.000000       29.713265         2    ;  uncertainty k = 0.051583
         2         3         8         1     4      180.000000       29.713265         2    ;  uncertainty k = 0.051583
         2         8         1         3     4      180.000000       29.713265         2    ;  uncertainty k = 0.051583
         4         3         5        10     4      180.000000       41.993789         2    ;  uncertainty k = 0.081311
         4         5        10         3     4      180.000000       41.993789         2    ;  uncertainty k = 0.081311
         4        10         3         5     4      180.000000       41.993789         2    ;  uncertainty k = 0.081311
         6         5         7         8     4      180.000000       29.713265         2    ;  uncertainty k = 0.051583
         6         7         8         5     4      180.000000       29.713265         2    ;  uncertainty k = 0.051583
         6         8         5         7     4      180.000000       29.713265         2    ;  uncertainty k = 0.051583
         8         2         6         9     4      180.000000        8.666833         2    ;  uncertainty k = 0.321939
         8         6         9         2     4      180.000000        8.666833         2    ;  uncertainty k = 0.321939
         8         9         2         6     4      180.000000        8.666833         2    ;  uncertainty k = 0.321939
        10         4        11        17     4      180.000000        0.069033         2    ;  uncertainty k = 0.111501
        10        11        17         4     4      180.000000        0.069033         2    ;  uncertainty k = 0.111501
        10        17         4        11     4      180.000000        0.069033         2    ;  uncertainty k = 0.111501
        18        14        19        20     4      180.000000       52.212280         2    ;  uncertainty k = 0.071533
        18        19        20        14     4      180.000000       52.212280         2    ;  uncertainty k = 0.071533
        18        20        14        19     4      180.000000       52.212280         2    ;  uncertainty k = 0.071533
        20        18        21        26     4      180.000000        9.307072         2    ;  uncertainty k = 0.434424
        20        21        26        18     4      180.000000        9.307072         2    ;  uncertainty k = 0.434424
        20        26        18        21     4      180.000000        9.307072         2    ;  uncertainty k = 0.434424
        21        20        22        23     4      180.000000       15.115266         2    ;  uncertainty k = 0.210077
        21        22        23        20     4      180.000000       15.115266         2    ;  uncertainty k = 0.210077
        21        23        20        22     4      180.000000       15.115266         2    ;  uncertainty k = 0.210077
        23        21        24        51     4      180.000000        2.461870         2    ;  uncertainty k = 0.103991
        23        24        51        21     4      180.000000        2.461870         2    ;  uncertainty k = 0.103991
        23        51        21        24     4      180.000000        2.461870         2    ;  uncertainty k = 0.103991
        24        23        25        52     4      180.000000        4.937369         2    ;  uncertainty k = 0.112088
        24        25        52        23     4      180.000000        4.937369         2    ;  uncertainty k = 0.112088
        24        52        23        25     4      180.000000        4.937369         2    ;  uncertainty k = 0.112088
        25        24        26        53     4      180.000000        2.847064         2    ;  uncertainty k = 0.193191
        25        26        53        24     4      180.000000        2.847064         2    ;  uncertainty k = 0.193191
        25        53        24        26     4      180.000000        2.847064         2    ;  uncertainty k = 0.193191
        26        20        25        27     4      180.000000       12.584197         2    ;  uncertainty k = 0.129690
        26        25        27        20     4      180.000000       12.584197         2    ;  uncertainty k = 0.129690
        26        27        20        25     4      180.000000       12.584197         2    ;  uncertainty k = 0.129690
        29        28        30        54     4      180.000000        0.414726         2    ;  uncertainty k = 0.408832
        29        30        54        28     4      180.000000        0.414726         2    ;  uncertainty k = 0.408832
        29        54        28        30     4      180.000000        0.414726         2    ;  uncertainty k = 0.408832
        30        29        31        55     4      180.000000        0.414726         2    ;  uncertainty k = 0.408832
        30        31        55        29     4      180.000000        0.414726         2    ;  uncertainty k = 0.408832
        30        55        29        31     4      180.000000        0.414726         2    ;  uncertainty k = 0.408832

[ pairs ]
;       ai        aj funct
         1         4     1
         1         6     1
         1         9     1
         2         5     1
         2         7     1
         2        10     1
         2        38     1
         2        39     1
         2        40     1
         3         6     1
         3         9     1
         3        11     1
         3        17     1
         3        32     1
         3        33     1
         3        34     1
         4         7     1
         4         8     1
         4        12     1
         4        16     1
         4        41     1
         4        42     1
         4        49     1
         4        50     1
         5         9     1
         5        11     1
         5        17     1
         5        35     1
         5        36     1
         5        37     1
         6        10     1
         6        38     1
         6        39     1
         6        40     1
         7         9     1
         8        32     1
         8        33     1
         8        34     1
         8        35     1
         8        36     1
         8        37     1
        10        13     1
        10        15     1
        10        43     1
        10        48     1
        11        14     1
        11        15     1
        11        44     1
        11        45     1
        11        48     1
        11        49     1
        11        50     1
        12        18     1
        12        46     1
        12        47     1
        12        49     1
        12        50     1
        13        17     1
        13        19     1
        13        20     1
        13        41     1
        13        42     1
        13        46     1
        13        47     1
        13        48     1
        14        17     1
        14        21     1
        14        26     1
        14        43     1
        14        48     1
        15        19     1
        15        20     1
        15        43     1
        15        44     1
        15        45     1
        15        49     1
        15        50     1
        16        18     1
        16        41     1
        16        42     1
        16        44     1
        16        45     1
        17        41     1
        17        42     1
        17        43     1
        17        46     1
        17        47     1
        18        22     1
        18        23     1
        18        25     1
        18        27     1
        18        44     1
        18        45     1
        18        46     1
        18        47     1
        19        21     1
        19        26     1
        20        24     1
        20        28     1
        20        31     1
        20        51     1
        20        53     1
        21        25     1
        21        27     1
        21        52     1
        22        24     1
        22        26     1
        22        51     1
        23        26     1
        23        53     1
        24        27     1
        25        28     1
        25        31     1
        25        51     1
        26        29     1
        26        30     1
        26        52     1
        27        53     1
        27        54     1
        27        55     1
        28        55     1
        31        54     1
        41        43     1
        42        43     1
        43        44     1
        43        45     1
        43        48     1
        46        48     1
        47        48     1
        48        49     1
        48        50     1
        51        52     1
        52        53     1
        54        55     1
