Generated by PDBParser
858
    1SOL     OW    1  -0.704   2.458   7.063
    1SOL    HW1    2  -0.617   2.409   7.072
    1SOL    HW2    3  -0.763   2.436   7.140
    2SOL     OW    4  -0.520   3.044   6.550
    2SOL    HW1    5  -0.561   2.957   6.574
    2SOL    HW2    6  -0.433   3.029   6.502
    3SOL     OW    7  -0.322   2.721   7.343
    3SOL    HW1    8  -0.322   2.811   7.300
    3SOL    HW2    9  -0.322   2.732   7.442
    4SOL     OW   10  -0.307   2.481   7.214
    4SOL    HW1   11  -0.326   2.579   7.209
    4SOL    HW2   12  -0.213   2.467   7.247
    5SOL     OW   13   0.079   2.860   7.247
    5SOL    HW1   14   0.086   2.831   7.152
    5SOL    HW2   15  -0.011   2.900   7.264
    6SOL     OW   16  -0.017   3.038   7.141
    6SOL    HW1   17   0.030   3.098   7.075
    6SOL    HW2   18  -0.111   3.069   7.153
    7SOL     OW   19  -0.669   2.934   7.070
    7SOL    HW1   20  -0.605   3.010   7.083
    7SOL    HW2   21  -0.674   2.880   7.154
    8SOL     OW   22  -1.490   2.641   6.569
    8SOL    HW1   23  -1.408   2.661   6.624
    8SOL    HW2   24  -1.544   2.571   6.616
    9SOL     OW   25  -1.375   3.198   6.469
    9SOL    HW1   26  -1.379   3.256   6.551
    9SOL    HW2   27  -1.367   3.102   6.496
   10SOL     OW   28  -1.596   3.118   6.585
   10SOL    HW1   29  -1.530   3.141   6.657
   10SOL    HW2   30  -1.667   3.189   6.581
   11SOL     OW   31  -2.210   3.019   6.935
   11SOL    HW1   32  -2.127   2.971   6.905
   11SOL    HW2   33  -2.188   3.077   7.013
   12SOL     OW   34  -2.200   2.513   7.223
   12SOL    HW1   35  -2.124   2.578   7.233
   12SOL    HW2   36  -2.218   2.498   7.126
   13SOL     OW   37  -2.226   2.966   7.294
   13SOL    HW1   38  -2.174   2.884   7.269
   13SOL    HW2   39  -2.199   3.042   7.235
   14SOL     OW   40  -1.370   2.319   7.236
   14SOL    HW1   41  -1.294   2.377   7.268
   14SOL    HW2   42  -1.420   2.366   7.164
   15SOL     OW   43  -1.360   2.315   6.899
   15SOL    HW1   44  -1.437   2.336   6.958
   15SOL    HW2   45  -1.280   2.293   6.955
   16SOL     OW   46  -2.189   3.783   7.239
   16SOL    HW1   47  -2.267   3.721   7.236
   16SOL    HW2   48  -2.165   3.803   7.334
   17SOL     OW   49  -2.364   2.954   7.873
   17SOL    HW1   50  -2.329   3.045   7.851
   17SOL    HW2   51  -2.451   2.939   7.826
   18SOL     OW   52  -2.503   3.262   7.960
   18SOL    HW1   53  -2.443   3.307   8.027
   18SOL    HW2   54  -2.464   3.173   7.935
   19SOL     OW   55  -2.655   3.969   8.511
   19SOL    HW1   56  -2.638   3.965   8.610
   19SOL    HW2   57  -2.571   3.950   8.462
   20SOL     OW   58  -2.875   3.880   8.611
   20SOL    HW1   59  -2.897   3.977   8.615
   20SOL    HW2   60  -2.800   3.865   8.547
   21SOL     OW   61  -1.920   3.931   8.543
   21SOL    HW1   62  -1.889   3.837   8.555
   21SOL    HW2   63  -1.847   3.994   8.570
   22SOL     OW   64  -0.477   2.289   7.148
   22SOL    HW1   65  -0.412   2.361   7.173
   22SOL    HW2   66  -0.513   2.247   7.231
   23SOL     OW   67  -0.320   3.036   7.192
   23SOL    HW1   68  -0.419   3.028   7.185
   23SOL    HW2   69  -0.277   2.961   7.141
   24SOL     OW   70  -0.185   2.769   7.584
   24SOL    HW1   71  -0.184   2.791   7.681
   24SOL    HW2   72  -0.188   2.670   7.572
   25SOL     OW   73  -0.222   3.178   7.291
   25SOL    HW1   74  -0.263   3.261   7.328
   25SOL    HW2   75  -0.124   3.177   7.311
   26SOL     OW   76  -2.260   2.713   7.894
   26SOL    HW1   77  -2.253   2.688   7.990
   26SOL    HW2   78  -2.300   2.804   7.886
   27SOL     OW   79  -2.827   2.581   7.705
   27SOL    HW1   80  -2.743   2.603   7.654
   27SOL    HW2   81  -2.808   2.586   7.803
   28SOL     OW   82  -3.062   2.597   7.990
   28SOL    HW1   83  -2.967   2.629   7.987
   28SOL    HW2   84  -3.075   2.535   8.068
   29SOL     OW   85  -2.962   2.836   8.207
   29SOL    HW1   86  -2.891   2.895   8.247
   29SOL    HW2   87  -2.920   2.779   8.136
   30SOL     OW   88  -2.769   2.259   8.113
   30SOL    HW1   89  -2.747   2.346   8.070
   30SOL    HW2   90  -2.821   2.276   8.197
   31SOL     OW   91  -2.603   2.978   7.714
   31SOL    HW1   92  -2.655   3.024   7.786
   31SOL    HW2   93  -2.636   3.008   7.625
   32SOL     OW   94  -2.246   1.797   8.593
   32SOL    HW1   95  -2.178   1.805   8.666
   32SOL    HW2   96  -2.254   1.885   8.546
   33SOL     OW   97  -2.394   1.857   8.181
   33SOL    HW1   98  -2.374   1.914   8.260
   33SOL    HW2   99  -2.424   1.766   8.212
   34SOL     OW  100  -2.865   1.057   9.139
   34SOL    HW1  101  -2.882   1.153   9.163
   34SOL    HW2  102  -2.768   1.043   9.124
   35SOL     OW  103  -2.833   1.585   9.040
   35SOL    HW1  104  -2.831   1.491   9.075
   35SOL    HW2  105  -2.833   1.582   8.940
   36SOL     OW  106  -2.713   0.935   8.875
   36SOL    HW1  107  -2.649   0.949   8.950
   36SOL    HW2  108  -2.804   0.915   8.912
   37SOL     OW  109  -2.939   1.987   8.391
   37SOL    HW1  110  -2.918   1.924   8.466
   37SOL    HW2  111  -3.038   2.000   8.387
   38SOL     OW  112  -3.124   1.793   8.723
   38SOL    HW1  113  -3.042   1.809   8.669
   38SOL    HW2  114  -3.122   1.852   8.804
   39SOL     OW  115  -3.128   1.661   8.953
   39SOL    HW1  116  -3.064   1.665   9.029
   39SOL    HW2  117  -3.078   1.664   8.867
   40SOL     OW  118  -3.093   2.231   9.112
   40SOL    HW1  119  -3.034   2.150   9.113
   40SOL    HW2  120  -3.071   2.289   9.189
   41SOL     OW  121  -3.290   1.854   8.963
   41SOL    HW1  122  -3.212   1.794   8.984
   41SOL    HW2  123  -3.288   1.933   9.025
   42SOL     OW  124  -3.330   2.386   9.019
   42SOL    HW1  125  -3.393   2.409   8.945
   42SOL    HW2  126  -3.243   2.356   8.981
   43SOL     OW  127  -3.143   2.149   8.622
   43SOL    HW1  128  -3.153   2.050   8.631
   43SOL    HW2  129  -3.143   2.174   8.524
   44SOL     OW  130  -3.117   2.330   8.833
   44SOL    HW1  131  -3.040   2.391   8.813
   44SOL    HW2  132  -3.109   2.247   8.778
   45SOL     OW  133  -2.742   3.104   8.045
   45SOL    HW1  134  -2.734   3.081   8.142
   45SOL    HW2  135  -2.662   3.157   8.017
   46SOL     OW  136  -3.146   3.122   8.226
   46SOL    HW1  137  -3.138   3.211   8.272
   46SOL    HW2  138  -3.152   3.050   8.294
   47SOL     OW  139  -3.123   3.096   8.656
   47SOL    HW1  140  -3.121   3.101   8.756
   47SOL    HW2  141  -3.092   3.182   8.617
   48SOL     OW  142  -3.744   2.777   9.567
   48SOL    HW1  143  -3.670   2.844   9.572
   48SOL    HW2  144  -3.831   2.824   9.562
   49SOL     OW  145  -3.901   3.106   9.424
   49SOL    HW1  146  -3.900   3.008   9.443
   49SOL    HW2  147  -3.818   3.148   9.459
   50SOL     OW  148  -0.823   3.948   8.929
   50SOL    HW1  149  -0.886   3.872   8.912
   50SOL    HW2  150  -0.832   4.016   8.857
   51SOL     OW  151  -1.528   3.312   9.423
   51SOL    HW1  152  -1.528   3.231   9.363
   51SOL    HW2  153  -1.492   3.390   9.373
   52SOL     OW  154  -3.564   2.395   9.292
   52SOL    HW1  155  -3.609   2.423   9.377
   52SOL    HW2  156  -3.482   2.343   9.314
   53SOL     OW  157  -3.913   2.355   9.460
   53SOL    HW1  158  -3.983   2.307   9.512
   53SOL    HW2  159  -3.931   2.347   9.362
   54SOL     OW  160  -1.145   3.363   9.636
   54SOL    HW1  161  -1.198   3.284   9.666
   54SOL    HW2  162  -1.058   3.366   9.684
   55SOL     OW  163  -1.116   2.737   9.520
   55SOL    HW1  164  -1.097   2.825   9.475
   55SOL    HW2  165  -1.202   2.700   9.486
   56SOL     OW  166  -1.291   2.848   9.128
   56SOL    HW1  167  -1.271   2.929   9.073
   56SOL    HW2  168  -1.285   2.872   9.225
   57SOL     OW  169  -3.315   1.443   8.975
   57SOL    HW1  170  -3.250   1.519   8.967
   57SOL    HW2  171  -3.267   1.361   9.005
   58SOL     OW  172  -1.516   2.653   9.639
   58SOL    HW1  173  -1.595   2.665   9.579
   58SOL    HW2  174  -1.544   2.657   9.734
   59SOL     OW  175  -1.338   2.642   9.434
   59SOL    HW1  176  -1.403   2.646   9.509
   59SOL    HW2  177  -1.371   2.578   9.364
   60SOL     OW  178  -1.927   0.909   8.726
   60SOL    HW1  179  -1.863   0.972   8.788
   60SOL    HW2  180  -1.991   0.846   8.790
   61SOL     OW  181  -2.796   2.970   9.939
   61SOL    HW1  182  -2.736   2.893   9.958
   61SOL    HW2  183  -2.850   2.951   9.857
   62SOL     OW  184  -2.774   2.096   9.840
   62SOL    HW1  185  -2.850   2.062   9.895
   62SOL    HW2  186  -2.769   2.196   9.847
   63SOL     OW  187  -2.809   2.273  10.147
   63SOL    HW1  188  -2.843   2.322  10.067
   63SOL    HW2  189  -2.841   2.319  10.230
   64SOL     OW  190  -3.524   2.977   9.583
   64SOL    HW1  191  -3.507   3.026   9.498
   64SOL    HW2  192  -3.503   3.036   9.661
   65SOL     OW  193  -3.692   3.211   9.512
   65SOL    HW1  194  -3.662   3.303   9.536
   65SOL    HW2  195  -3.626   3.169   9.450
   66SOL     OW  196  -2.976   3.785  10.146
   66SOL    HW1  197  -2.998   3.778  10.243
   66SOL    HW2  198  -2.881   3.813  10.135
   67SOL     OW  199  -3.680   3.733   9.611
   67SOL    HW1  200  -3.659   3.636   9.598
   67SOL    HW2  201  -3.620   3.788   9.552
   68SOL     OW  202  -2.466   2.121  11.086
   68SOL    HW1  203  -2.405   2.182  11.155
   68SOL    HW2  204  -2.536   2.060  11.144
   69SOL     OW  205  -3.373   3.710   9.147
   69SOL    HW1  206  -3.354   3.635   9.210
   69SOL    HW2  207  -3.313   3.702   9.067
   70SOL     OW  208  -3.037   3.553   9.202
   70SOL    HW1  209  -3.093   3.595   9.131
   70SOL    HW2  210  -2.964   3.499   9.160
   71SOL     OW  211  -3.122   3.325   9.027
   71SOL    HW1  212  -3.056   3.292   8.960
   71SOL    HW2  213  -3.101   3.421   9.049
   72SOL     OW  214  -3.484   3.277   8.462
   72SOL    HW1  215  -3.489   3.322   8.552
   72SOL    HW2  216  -3.473   3.178   8.475
   73SOL     OW  217  -3.339   2.976   8.594
   73SOL    HW1  218  -3.255   3.023   8.619
   73SOL    HW2  219  -3.388   2.949   8.677
   74SOL     OW  220  -3.212   2.660   8.223
   74SOL    HW1  221  -3.130   2.718   8.218
   74SOL    HW2  222  -3.187   2.569   8.256
   75SOL     OW  223  -3.273   2.385   8.579
   75SOL    HW1  224  -3.358   2.355   8.536
   75SOL    HW2  225  -3.231   2.309   8.628
   76SOL     OW  226  -3.376   2.401   9.236
   76SOL    HW1  227  -3.298   2.410   9.298
   76SOL    HW2  228  -3.344   2.395   9.142
   77SOL     OW  229  -3.709   2.486   9.565
   77SOL    HW1  230  -3.727   2.584   9.562
   77SOL    HW2  231  -3.786   2.436   9.525
   78SOL     OW  232  -3.537   2.242   9.951
   78SOL    HW1  233  -3.526   2.299   9.870
   78SOL    HW2  234  -3.526   2.298  10.033
   79SOL     OW  235  -3.256   2.126   9.891
   79SOL    HW1  236  -3.169   2.088   9.921
   79SOL    HW2  237  -3.312   2.150   9.972
   80SOL     OW  238  -3.286   2.048   9.114
   80SOL    HW1  239  -3.315   2.032   9.209
   80SOL    HW2  240  -3.237   2.134   9.108
   81SOL     OW  241  -2.671   2.207  10.492
   81SOL    HW1  242  -2.577   2.230  10.517
   81SOL    HW2  243  -2.725   2.194  10.575
   82SOL     OW  244  -2.837   1.130   9.826
   82SOL    HW1  245  -2.879   1.198   9.766
   82SOL    HW2  246  -2.853   1.156   9.922
   83SOL     OW  247  -2.975   2.005   9.987
   83SOL    HW1  248  -3.010   1.927   9.935
   83SOL    HW2  249  -2.984   1.986  10.085
   84SOL     OW  250  -3.167   1.148   9.079
   84SOL    HW1  251  -3.073   1.120   9.098
   84SOL    HW2  252  -3.215   1.163   9.165
   85SOL     OW  253  -2.216   0.748   9.530
   85SOL    HW1  254  -2.234   0.833   9.481
   85SOL    HW2  255  -2.220   0.765   9.628
   86SOL     OW  256  -2.235   0.769   9.048
   86SOL    HW1  257  -2.318   0.825   9.057
   86SOL    HW2  258  -2.201   0.746   9.139
   87SOL     OW  259  -1.850   0.975   9.398
   87SOL    HW1  260  -1.893   0.912   9.463
   87SOL    HW2  261  -1.908   1.056   9.386
   88SOL     OW  262  -2.023   2.143   9.840
   88SOL    HW1  263  -2.050   2.172   9.932
   88SOL    HW2  264  -1.948   2.201   9.807
   89SOL     OW  265  -0.464   3.137  10.270
   89SOL    HW1  266  -0.517   3.157  10.187
   89SOL    HW2  267  -0.519   3.158  10.351
   90SOL     OW  268  -1.638   1.063   8.972
   90SOL    HW1  269  -1.679   0.998   8.908
   90SOL    HW2  270  -1.539   1.048   8.977
   91SOL     OW  271  -1.917   1.223  10.084
   91SOL    HW1  272  -1.857   1.181  10.167
   91SOL    HW2  273  -1.973   1.142  10.035
   92SOL     OW  274  -1.884   1.992  10.394
   92SOL    HW1  275  -1.845   2.037  10.314
   92SOL    HW2  276  -1.896   1.895  10.376
   93SOL     OW  277  -0.639   1.626   9.159
   93SOL    HW1  278  -0.567   1.642   9.240
   93SOL    HW2  279  -0.662   1.519   9.151
   94SOL     OW  280  -0.285   2.275   8.903
   94SOL    HW1  281  -0.325   2.238   8.987
   94SOL    HW2  282  -0.213   2.341   8.927
   95SOL     OW  283  -2.107   0.965  10.394
   95SOL    HW1  284  -2.195   0.952  10.458
   95SOL    HW2  285  -2.122   0.911  10.300
   96SOL     OW  286  -0.153   2.201   8.054
   96SOL    HW1  287  -0.067   2.252   8.055
   96SOL    HW2  288  -0.213   2.238   7.983
   97SOL     OW  289  -1.961   2.066  10.609
   97SOL    HW1  290  -1.929   2.035  10.519
   97SOL    HW2  291  -1.911   2.018  10.681
   98SOL     OW  292  -1.528   2.263  10.894
   98SOL    HW1  293  -1.467   2.305  10.976
   98SOL    HW2  294  -1.567   2.164  10.925
   99SOL     OW  295  -1.269   2.785  10.697
   99SOL    HW1  296  -1.337   2.721  10.661
   99SOL    HW2  297  -1.271   2.783  10.796
  100SOL     OW  298  -1.896   2.653  10.791
  100SOL    HW1  299  -1.907   2.639  10.692
  100SOL    HW2  300  -1.947   2.583  10.840
  101SOL     OW  301   0.008   2.508   7.924
  101SOL    HW1  302   0.081   2.461   7.974
  101SOL    HW2  303   0.023   2.498   7.826
  102SOL     OW  304  -1.345   3.026  10.644
  102SOL    HW1  305  -1.315   2.932  10.664
  102SOL    HW2  306  -1.326   3.085  10.723
  103SOL     OW  307  -1.351   3.322  10.792
  103SOL    HW1  308  -1.399   3.305  10.706
  103SOL    HW2  309  -1.411   3.301  10.869
  104SOL     OW  310  -1.569   3.427   9.688
  104SOL    HW1  311  -1.555   3.387   9.597
  104SOL    HW2  312  -1.545   3.359   9.757
  105SOL     OW  313  -2.445   2.120  10.824
  105SOL    HW1  314  -2.439   2.215  10.791
  105SOL    HW2  315  -2.452   2.121  10.924
  106SOL     OW  316  -2.375   2.534  10.703
  106SOL    HW1  317  -2.384   2.439  10.674
  106SOL    HW2  318  -2.400   2.595  10.628
  107SOL     OW  319  -1.481   4.285   6.339
  107SOL    HW1  320  -1.427   4.205   6.363
  107SOL    HW2  321  -1.512   4.331   6.422
  108SOL     OW  322  -0.804   4.718   6.313
  108SOL    HW1  323  -0.827   4.732   6.409
  108SOL    HW2  324  -0.718   4.667   6.306
  109SOL     OW  325  -0.964   5.006   6.556
  109SOL    HW1  326  -0.935   4.910   6.552
  109SOL    HW2  327  -0.936   5.046   6.643
  110SOL     OW  328  -1.361   1.469   9.698
  110SOL    HW1  329  -1.295   1.527   9.764
  110SOL    HW2  330  -1.350   1.361   9.720
  111SOL     OW  331   0.598   4.142   8.602
  111SOL    HW1  332   0.511   4.191   8.598
  111SOL    HW2  333   0.624   4.127   8.698
  112SOL     OW  334   0.523   3.999   9.339
  112SOL    HW1  335   0.617   4.036   9.384
  112SOL    HW2  336   0.545   3.915   9.272
  113SOL     OW  337  -1.983   1.882   7.882
  113SOL    HW1  338  -1.896   1.876   7.932
  113SOL    HW2  339  -1.976   1.954   7.812
  114SOL     OW  340  -1.751   2.115   8.037
  114SOL    HW1  341  -1.736   2.146   7.943
  114SOL    HW2  342  -1.739   2.016   8.041
  115SOL     OW  343  -1.963   2.082   7.685
  115SOL    HW1  344  -2.018   2.154   7.728
  115SOL    HW2  345  -1.867   2.095   7.709
  116SOL     OW  346  -2.243   2.000   7.906
  116SOL    HW1  347  -2.290   1.961   7.985
  116SOL    HW2  348  -2.152   1.959   7.898
  117SOL     OW  349  -2.125   2.025   7.463
  117SOL    HW1  350  -2.067   1.945   7.445
  117SOL    HW2  351  -2.091   2.073   7.544
  118SOL     OW  352  -2.138   2.251   7.279
  118SOL    HW1  353  -2.149   2.234   7.377
  118SOL    HW2  354  -2.160   2.346   7.258
  119SOL     OW  355  -2.519   2.964   7.442
  119SOL    HW1  356  -2.526   2.885   7.503
  119SOL    HW2  357  -2.430   2.965   7.397
  120SOL     OW  358  -1.438   2.035   7.349
  120SOL    HW1  359  -1.416   2.126   7.313
  120SOL    HW2  360  -1.355   1.995   7.389
  121SOL     OW  361   0.308   5.403   9.757
  121SOL    HW1  362   0.259   5.467   9.698
  121SOL    HW2  363   0.291   5.425   9.853
  122SOL     OW  364  -1.385   1.473   8.030
  122SOL    HW1  365  -1.277   1.463   8.045
  122SOL    HW2  366  -1.421   1.394   7.962
  123SOL     OW  367  -1.442   1.181   8.987
  123SOL    HW1  368  -1.352   1.169   9.027
  123SOL    HW2  369  -1.435   1.180   8.887
  124SOL     OW  370  -1.180   2.276   9.200
  124SOL    HW1  371  -1.114   2.331   9.251
  124SOL    HW2  372  -1.131   2.222   9.131
  125SOL     OW  373  -1.373   2.465   9.182
  125SOL    HW1  374  -1.454   2.435   9.233
  125SOL    HW2  375  -1.302   2.396   9.189
  126SOL     OW  376  -1.057   1.939   9.769
  126SOL    HW1  377  -1.129   1.989   9.720
  126SOL    HW2  378  -1.071   1.948   9.867
  127SOL     OW  379  -0.849   2.063   9.617
  127SOL    HW1  380  -0.793   2.120   9.677
  127SOL    HW2  381  -0.922   2.020   9.670
  128SOL     OW  382  -2.906   2.976  10.645
  128SOL    HW1  383  -2.857   2.939  10.566
  128SOL    HW2  384  -2.863   2.944  10.729
  129SOL     OW  385  -2.520   2.826  10.729
  129SOL    HW1  386  -2.456   2.863  10.797
  129SOL    HW2  387  -2.614   2.839  10.762
  130SOL     OW  388  -2.768   2.797  10.807
  130SOL    HW1  389  -2.760   2.812  10.905
  130SOL    HW2  390  -2.815   2.710  10.791
  131SOL     OW  391  -2.903   3.238  10.284
  131SOL    HW1  392  -2.978   3.202  10.340
  131SOL    HW2  393  -2.920   3.218  10.188
  132SOL     OW  394  -2.813   3.207  10.095
  132SOL    HW1  395  -2.753   3.277  10.056
  132SOL    HW2  396  -2.807   3.123  10.040
  133SOL     OW  397  -2.726   3.710   9.970
  133SOL    HW1  398  -2.726   3.709  10.070
  133SOL    HW2  399  -2.778   3.789   9.938
  134SOL     OW  400  -2.951   4.103  10.408
  134SOL    HW1  401  -2.873   4.059  10.453
  134SOL    HW2  402  -3.014   4.138  10.476
  135SOL     OW  403  -2.640   4.308  10.665
  135SOL    HW1  404  -2.606   4.249  10.592
  135SOL    HW2  405  -2.642   4.258  10.752
  136SOL     OW  406  -2.645   4.178  10.889
  136SOL    HW1  407  -2.585   4.195  10.968
  136SOL    HW2  408  -2.707   4.102  10.911
  137SOL     OW  409  -2.946   3.957  10.172
  137SOL    HW1  410  -2.988   3.977  10.261
  137SOL    HW2  411  -3.008   3.986  10.100
  138SOL     OW  412  -2.925   4.148  10.083
  138SOL    HW1  413  -2.976   4.213  10.140
  138SOL    HW2  414  -2.941   4.168   9.987
  139SOL     OW  415  -2.804   4.173   9.686
  139SOL    HW1  416  -2.809   4.075   9.667
  139SOL    HW2  417  -2.804   4.187   9.785
  140SOL     OW  418  -2.748   3.680   9.257
  140SOL    HW1  419  -2.696   3.602   9.293
  140SOL    HW2  420  -2.751   3.675   9.157
  141SOL     OW  421   1.096   4.221   8.086
  141SOL    HW1  422   0.998   4.203   8.083
  141SOL    HW2  423   1.126   4.227   8.182
  142SOL     OW  424   1.392   4.637   8.319
  142SOL    HW1  425   1.308   4.664   8.271
  142SOL    HW2  426   1.378   4.641   8.418
  143SOL     OW  427  -1.051   2.897   8.858
  143SOL    HW1  428  -1.118   2.956   8.903
  143SOL    HW2  429  -0.959   2.936   8.870
  144SOL     OW  430  -0.793   2.936   8.888
  144SOL    HW1  431  -0.799   3.014   8.950
  144SOL    HW2  432  -0.732   2.867   8.927
  145SOL     OW  433  -0.042   3.196   8.504
  145SOL    HW1  434  -0.011   3.144   8.424
  145SOL    HW2  435   0.018   3.175   8.581
  146SOL     OW  436  -0.418   2.845   9.101
  146SOL    HW1  437  -0.474   2.794   9.036
  146SOL    HW2  438  -0.322   2.839   9.074
  147SOL     OW  439  -0.168   3.110   9.356
  147SOL    HW1  440  -0.076   3.161   9.389
  147SOL    HW2  441  -0.147   3.052   9.265
  148SOL     OW  442  -0.607   3.190  10.048
  148SOL    HW1  443  -0.559   3.225   9.968
  148SOL    HW2  444  -0.696   3.156  10.021
  149SOL     OW  445   0.113   3.437   9.524
  149SOL    HW1  446   0.048   3.420   9.449
  149SOL    HW2  447   0.158   3.351   9.549
  150SOL     OW  448  -2.170   5.020   7.705
  150SOL    HW1  449  -2.077   4.997   7.736
  150SOL    HW2  450  -2.228   5.035   7.784
  151SOL     OW  451  -3.345   5.593   8.790
  151SOL    HW1  452  -3.381   5.502   8.765
  151SOL    HW2  453  -3.342   5.601   8.889
  152SOL     OW  454  -0.868   3.590   9.989
  152SOL    HW1  455  -0.794   3.592  10.055
  152SOL    HW2  456  -0.831   3.591   9.896
  153SOL     OW  457  -3.102   5.339   7.471
  153SOL    HW1  458  -3.038   5.402   7.534
  153SOL    HW2  459  -3.166   5.276   7.535
  154SOL     OW  460  -0.313   2.935  10.200
  154SOL    HW1  461  -0.370   3.012  10.226
  154SOL    HW2  462  -0.278   2.889  10.282
  155SOL     OW  463  -0.472   2.438   9.536
  155SOL    HW1  464  -0.452   2.501   9.610
  155SOL    HW2  465  -0.501   2.350   9.574
  156SOL     OW  466  -0.752   1.840   8.987
  156SOL    HW1  467  -0.775   1.919   9.043
  156SOL    HW2  468  -0.730   1.762   9.045
  157SOL     OW  469  -0.386   2.181   9.115
  157SOL    HW1  470  -0.470   2.135   9.145
  157SOL    HW2  471  -0.333   2.210   9.194
  158SOL     OW  472  -0.365   2.316   8.662
  158SOL    HW1  473  -0.462   2.292   8.655
  158SOL    HW2  474  -0.334   2.300   8.756
  159SOL     OW  475  -0.440   2.547   9.282
  159SOL    HW1  476  -0.434   2.632   9.230
  159SOL    HW2  477  -0.439   2.567   9.380
  160SOL     OW  478  -0.203   2.779   8.809
  160SOL    HW1  479  -0.286   2.734   8.843
  160SOL    HW2  480  -0.135   2.783   8.882
  161SOL     OW  481   0.688   3.477   8.291
  161SOL    HW1  482   0.623   3.552   8.288
  161SOL    HW2  483   0.708   3.453   8.386
  162SOL     OW  484  -0.221   1.978   8.235
  162SOL    HW1  485  -0.198   2.053   8.174
  162SOL    HW2  486  -0.212   2.008   8.330
  163SOL     OW  487  -0.895   1.193   8.306
  163SOL    HW1  488  -0.890   1.292   8.296
  163SOL    HW2  489  -0.896   1.168   8.403
  164SOL     OW  490  -0.316   1.769   7.936
  164SOL    HW1  491  -0.327   1.670   7.930
  164SOL    HW2  492  -0.259   1.801   7.859
  165SOL     OW  493  -0.964   1.681   7.741
  165SOL    HW1  494  -1.033   1.622   7.784
  165SOL    HW2  495  -0.984   1.689   7.644
  166SOL     OW  496  -0.357   2.095   7.620
  166SOL    HW1  497  -0.455   2.075   7.629
  166SOL    HW2  498  -0.317   2.103   7.711
  167SOL     OW  499  -0.679   1.417   7.950
  167SOL    HW1  500  -0.663   1.440   7.854
  167SOL    HW2  501  -0.633   1.484   8.008
  168SOL     OW  502  -1.007   1.882   7.554
  168SOL    HW1  503  -1.097   1.911   7.520
  168SOL    HW2  504  -0.936   1.937   7.511
  169SOL     OW  505  -0.396   2.119   7.966
  169SOL    HW1  506  -0.478   2.172   7.946
  169SOL    HW2  507  -0.385   2.111   8.065
  170SOL     OW  508  -0.196   2.535   7.771
  170SOL    HW1  509  -0.139   2.615   7.750
  170SOL    HW2  510  -0.158   2.454   7.727
  171SOL     OW  511  -0.442   2.601   8.577
  171SOL    HW1  512  -0.437   2.644   8.487
  171SOL    HW2  513  -0.352   2.605   8.621
  172SOL     OW  514   0.054   2.581   8.166
  172SOL    HW1  515   0.084   2.574   8.261
  172SOL    HW2  516   0.130   2.562   8.104
  173SOL     OW  517  -0.171   2.869   8.567
  173SOL    HW1  518  -0.183   2.834   8.660
  173SOL    HW2  519  -0.136   2.963   8.571
  174SOL     OW  520  -1.387   4.151   7.790
  174SOL    HW1  521  -1.352   4.068   7.746
  174SOL    HW2  522  -1.368   4.230   7.732
  175SOL     OW  523  -1.920   3.744   7.212
  175SOL    HW1  524  -1.856   3.818   7.189
  175SOL    HW2  525  -2.013   3.780   7.217
  176SOL     OW  526  -1.538   4.332   7.494
  176SOL    HW1  527  -1.592   4.331   7.578
  176SOL    HW2  528  -1.441   4.317   7.517
  177SOL     OW  529  -2.272   4.555   7.400
  177SOL    HW1  530  -2.324   4.566   7.484
  177SOL    HW2  531  -2.176   4.536   7.422
  178SOL     OW  532  -1.141   2.429   7.452
  178SOL    HW1  533  -1.149   2.518   7.498
  178SOL    HW2  534  -1.056   2.427   7.398
  179SOL     OW  535  -0.606   2.711   7.212
  179SOL    HW1  536  -0.516   2.714   7.254
  179SOL    HW2  537  -0.676   2.708   7.284
  180SOL     OW  538  -0.853   2.402   7.258
  180SOL    HW1  539  -0.828   2.412   7.354
  180SOL    HW2  540  -0.947   2.368   7.251
  181SOL     OW  541  -0.882   3.751   6.280
  181SOL    HW1  542  -0.943   3.756   6.359
  181SOL    HW2  543  -0.797   3.800   6.301
  182SOL     OW  544  -1.327   4.058   6.407
  182SOL    HW1  545  -1.371   3.997   6.473
  182SOL    HW2  546  -1.236   4.082   6.440
  183SOL     OW  547  -1.778   3.301   6.574
  183SOL    HW1  548  -1.867   3.297   6.620
  183SOL    HW2  549  -1.771   3.387   6.523
  184SOL     OW  550  -1.840   3.560   6.636
  184SOL    HW1  551  -1.742   3.550   6.619
  184SOL    HW2  552  -1.857   3.562   6.734
  185SOL     OW  553  -1.094   4.058   6.295
  185SOL    HW1  554  -1.091   4.167   6.288
  185SOL    HW2  555  -1.165   4.018   6.222
  186SOL     OW  556  -0.754   4.078   6.431
  186SOL    HW1  557  -0.844   4.080   6.475
  186SOL    HW2  558  -0.688   4.127   6.488
  187SOL     OW  559  -0.609   3.794   6.468
  187SOL    HW1  560  -0.605   3.773   6.566
  187SOL    HW2  561  -0.675   3.867   6.452
  188SOL     OW  562  -0.632   4.538   6.892
  188SOL    HW1  563  -0.692   4.495   6.825
  188SOL    HW2  564  -0.552   4.480   6.908
  189SOL     OW  565  -0.870   4.757   6.583
  189SOL    HW1  566  -0.787   4.761   6.638
  189SOL    HW2  567  -0.911   4.667   6.590
  190SOL     OW  568  -0.845   4.309   6.238
  190SOL    HW1  569  -0.927   4.343   6.191
  190SOL    HW2  570  -0.807   4.232   6.187
  191SOL     OW  571  -0.346   3.997   6.536
  191SOL    HW1  572  -0.419   4.064   6.551
  191SOL    HW2  573  -0.387   3.909   6.510
  192SOL     OW  574  -0.360   4.634   6.640
  192SOL    HW1  575  -0.406   4.709   6.689
  192SOL    HW2  576  -0.369   4.649   6.542
  193SOL     OW  577  -0.267   3.918   6.783
  193SOL    HW1  578  -0.239   3.833   6.826
  193SOL    HW2  579  -0.268   3.907   6.683
  194SOL     OW  580  -0.155   4.684   6.748
  194SOL    HW1  581  -0.244   4.655   6.713
  194SOL    HW2  582  -0.115   4.751   6.686
  195SOL     OW  583   0.279   4.195   7.334
  195SOL    HW1  584   0.343   4.120   7.342
  195SOL    HW2  585   0.261   4.216   7.238
  196SOL     OW  586   0.343   4.388   7.508
  196SOL    HW1  587   0.303   4.367   7.597
  196SOL    HW2  588   0.319   4.316   7.443
  197SOL     OW  589  -0.206   3.412   7.424
  197SOL    HW1  590  -0.201   3.496   7.370
  197SOL    HW2  591  -0.118   3.395   7.468
  198SOL     OW  592   0.163   4.378   8.390
  198SOL    HW1  593   0.154   4.278   8.393
  198SOL    HW2  594   0.141   4.411   8.298
  199SOL     OW  595   0.372   4.270   8.590
  199SOL    HW1  596   0.359   4.366   8.614
  199SOL    HW2  597   0.285   4.231   8.561
  200SOL     OW  598   0.542   3.763   8.558
  200SOL    HW1  599   0.446   3.780   8.581
  200SOL    HW2  600   0.596   3.753   8.641
  201SOL     OW  601   0.094   4.439   9.500
  201SOL    HW1  602   0.046   4.524   9.520
  201SOL    HW2  603   0.082   4.415   9.403
  202SOL     OW  604   0.174   4.724   9.277
  202SOL    HW1  605   0.110   4.796   9.303
  202SOL    HW2  606   0.135   4.669   9.204
  203SOL     OW  607   0.264   4.108   9.389
  203SOL    HW1  608   0.186   4.122   9.327
  203SOL    HW2  609   0.339   4.067   9.337
  204SOL     OW  610   0.308   3.421   9.072
  204SOL    HW1  611   0.277   3.340   9.022
  204SOL    HW2  612   0.302   3.404   9.171
  205SOL     OW  613   0.014   4.603   9.072
  205SOL    HW1  614  -0.005   4.583   8.975
  205SOL    HW2  615   0.029   4.517   9.120
  206SOL     OW  616   0.630   5.540   8.371
  206SOL    HW1  617   0.532   5.519   8.381
  206SOL    HW2  618   0.671   5.550   8.461
  207SOL     OW  619   0.173   5.893   8.444
  207SOL    HW1  620   0.154   5.972   8.387
  207SOL    HW2  621   0.262   5.905   8.489
  208SOL     OW  622  -0.600   5.983   7.691
  208SOL    HW1  623  -0.572   5.951   7.781
  208SOL    HW2  624  -0.534   5.952   7.622
  209SOL     OW  625  -0.429   5.903   7.512
  209SOL    HW1  626  -0.339   5.919   7.554
  209SOL    HW2  627  -0.456   5.808   7.526
  210SOL     OW  628  -1.069   6.281   7.376
  210SOL    HW1  629  -1.106   6.353   7.318
  210SOL    HW2  630  -1.082   6.305   7.472
  211SOL     OW  631  -0.036   6.848   7.505
  211SOL    HW1  632   0.035   6.916   7.554
  211SOL    HW2  633  -0.023   6.853   7.396
  212SOL     OW  634   0.469   5.814   8.517
  212SOL    HW1  635   0.425   5.854   8.597
  212SOL    HW2  636   0.499   5.721   8.537
  213SOL     OW  637   0.294   6.160   9.257
  213SOL    HW1  638   0.324   6.094   9.326
  213SOL    HW2  639   0.258   6.241   9.303
  214SOL     OW  640   0.403   5.918   9.508
  214SOL    HW1  641   0.462   5.857   9.453
  214SOL    HW2  642   0.320   5.869   9.533
  215SOL     OW  643   0.720   5.003   9.672
  215SOL    HW1  644   0.767   4.951   9.743
  215SOL    HW2  645   0.623   5.013   9.697
  216SOL     OW  646   0.922   4.860   9.243
  216SOL    HW1  647   0.907   4.850   9.145
  216SOL    HW2  648   0.835   4.856   9.291
  217SOL     OW  649  -0.205   5.601   9.483
  217SOL    HW1  650  -0.188   5.546   9.401
  217SOL    HW2  651  -0.136   5.673   9.490
  218SOL     OW  652   0.191   5.558   9.616
  218SOL    HW1  653   0.162   5.650   9.643
  218SOL    HW2  654   0.163   5.540   9.522
  219SOL     OW  655  -0.025   5.717   9.866
  219SOL    HW1  656  -0.021   5.745   9.770
  219SOL    HW2  657  -0.014   5.797   9.925
  220SOL     OW  658  -0.616   5.218   9.669
  220SOL    HW1  659  -0.525   5.198   9.634
  220SOL    HW2  660  -0.632   5.165   9.753
  221SOL     OW  661  -0.137   4.433   9.735
  221SOL    HW1  662  -0.079   4.470   9.662
  221SOL    HW2  663  -0.195   4.506   9.772
  222SOL     OW  664  -0.899   4.520   9.469
  222SOL    HW1  665  -0.944   4.431   9.463
  222SOL    HW2  666  -0.829   4.527   9.399
  223SOL     OW  667  -0.480   4.298   9.877
  223SOL    HW1  668  -0.428   4.382   9.864
  223SOL    HW2  669  -0.491   4.280   9.974
  224SOL     OW  670  -1.794   4.879   9.100
  224SOL    HW1  671  -1.784   4.978   9.094
  224SOL    HW2  672  -1.796   4.851   9.195
  225SOL     OW  673  -0.405   5.666   9.694
  225SOL    HW1  674  -0.340   5.637   9.624
  225SOL    HW2  675  -0.454   5.587   9.730
  226SOL     OW  676  -0.542   5.444   9.794
  226SOL    HW1  677  -0.560   5.426   9.891
  226SOL    HW2  678  -0.580   5.370   9.739
  227SOL     OW  679  -1.108   6.691   9.190
  227SOL    HW1  680  -1.063   6.655   9.272
  227SOL    HW2  681  -1.042   6.698   9.116
  228SOL     OW  682  -0.798   6.848   8.231
  228SOL    HW1  683  -0.861   6.775   8.258
  228SOL    HW2  684  -0.760   6.891   8.313
  229SOL     OW  685  -1.874   6.927   8.677
  229SOL    HW1  686  -1.825   7.014   8.669
  229SOL    HW2  687  -1.936   6.916   8.600
  230SOL     OW  688  -2.242   5.892   8.982
  230SOL    HW1  689  -2.175   5.963   9.005
  230SOL    HW2  690  -2.334   5.923   9.005
  231SOL     OW  691  -1.674   5.782   9.240
  231SOL    HW1  692  -1.680   5.880   9.220
  231SOL    HW2  693  -1.639   5.733   9.161
  232SOL     OW  694  -2.558   6.165   7.229
  232SOL    HW1  695  -2.504   6.214   7.298
  232SOL    HW2  696  -2.578   6.073   7.262
  233SOL     OW  697  -2.388   5.424   7.410
  233SOL    HW1  698  -2.324   5.487   7.473
  233SOL    HW2  699  -2.451   5.361   7.474
  234SOL     OW  700  -1.400   6.470   7.244
  234SOL    HW1  701  -1.471   6.510   7.302
  234SOL    HW2  702  -1.329   6.431   7.302
  235SOL     OW  703  -1.535   6.348   7.050
  235SOL    HW1  704  -1.630   6.322   7.069
  235SOL    HW2  705  -1.486   6.361   7.136
  236SOL     OW  706   0.928   4.566   8.253
  236SOL    HW1  707   0.890   4.544   8.163
  236SOL    HW2  708   0.868   4.531   8.325
  237SOL     OW  709   0.828   4.508   8.016
  237SOL    HW1  710   0.747   4.460   7.983
  237SOL    HW2  711   0.886   4.533   7.938
  238SOL     OW  712   0.804   4.167   8.077
  238SOL    HW1  713   0.831   4.154   7.982
  238SOL    HW2  714   0.801   4.265   8.098
  239SOL     OW  715   0.788   3.903   7.926
  239SOL    HW1  716   0.823   3.981   7.874
  239SOL    HW2  717   0.796   3.922   8.024
  240SOL     OW  718   0.409   3.833   7.199
  240SOL    HW1  719   0.419   3.894   7.278
  240SOL    HW2  720   0.451   3.744   7.220
  241SOL     OW  721   0.629   3.659   7.540
  241SOL    HW1  722   0.556   3.727   7.547
  241SOL    HW2  723   0.658   3.631   7.631
  242SOL     OW  724   0.520   3.812   7.836
  242SOL    HW1  725   0.493   3.819   7.740
  242SOL    HW2  726   0.612   3.847   7.848
  243SOL     OW  727   1.308   4.183   7.734
  243SOL    HW1  728   1.404   4.199   7.757
  243SOL    HW2  729   1.254   4.174   7.817
  244SOL     OW  730   1.596   4.232   7.805
  244SOL    HW1  731   1.678   4.195   7.849
  244SOL    HW2  732   1.593   4.203   7.710
  245SOL     OW  733   1.135   4.721   8.174
  245SOL    HW1  734   1.051   4.682   8.211
  245SOL    HW2  735   1.138   4.819   8.194
  246SOL     OW  736   1.198   5.063   7.435
  246SOL    HW1  737   1.141   5.063   7.517
  246SOL    HW2  738   1.294   5.062   7.461
  247SOL     OW  739   1.143   4.972   8.225
  247SOL    HW1  740   1.084   5.019   8.159
  247SOL    HW2  741   1.231   5.018   8.229
  248SOL     OW  742   1.436   5.124   8.241
  248SOL    HW1  743   1.523   5.116   8.289
  248SOL    HW2  744   1.445   5.087   8.148
  249SOL     OW  745   0.083   5.803   6.996
  249SOL    HW1  746   0.171   5.846   6.973
  249SOL    HW2  747   0.038   5.771   6.913
  250SOL     OW  748  -0.374   5.699   6.808
  250SOL    HW1  749  -0.373   5.600   6.822
  250SOL    HW2  750  -0.374   5.745   6.896
  251SOL     OW  751  -1.697   5.892   7.307
  251SOL    HW1  752  -1.744   5.818   7.354
  251SOL    HW2  753  -1.747   5.916   7.224
  252SOL     OW  754  -2.184   4.902   7.991
  252SOL    HW1  755  -2.103   4.845   7.972
  252SOL    HW2  756  -2.196   4.910   8.090
  253SOL     OW  757  -2.954   5.499   8.064
  253SOL    HW1  758  -2.921   5.549   8.144
  253SOL    HW2  759  -3.006   5.419   8.093
  254SOL     OW  760  -3.438   5.356   8.725
  254SOL    HW1  761  -3.522   5.339   8.674
  254SOL    HW2  762  -3.395   5.269   8.749
  255SOL     OW  763  -2.880   5.538   7.821
  255SOL    HW1  764  -2.824   5.621   7.816
  255SOL    HW2  765  -2.909   5.523   7.916
  256SOL     OW  766  -1.580   5.708   9.449
  256SOL    HW1  767  -1.544   5.787   9.500
  256SOL    HW2  768  -1.619   5.739   9.363
  257SOL     OW  769  -0.709   4.612   9.322
  257SOL    HW1  770  -0.677   4.649   9.410
  257SOL    HW2  771  -0.694   4.681   9.251
  258SOL     OW  772  -1.922   4.958   7.788
  258SOL    HW1  773  -1.944   4.881   7.847
  258SOL    HW2  774  -1.899   5.038   7.844
  259SOL     OW  775  -0.041   3.023   7.597
  259SOL    HW1  776  -0.065   3.086   7.672
  259SOL    HW2  777  -0.096   2.941   7.603
  260SOL     OW  778   0.532   3.532   7.899
  260SOL    HW1  779   0.459   3.497   7.957
  260SOL    HW2  780   0.518   3.630   7.883
  261SOL     OW  781   0.057   3.151   7.349
  261SOL    HW1  782   0.078   3.080   7.281
  261SOL    HW2  783   0.024   3.107   7.433
  262SOL     OW  784   0.529   3.662   8.284
  262SOL    HW1  785   0.433   3.657   8.254
  262SOL    HW2  786   0.533   3.696   8.377
  263SOL     OW  787  -1.768   4.766   6.837
  263SOL    HW1  788  -1.802   4.814   6.918
  263SOL    HW2  789  -1.713   4.688   6.865
  264SOL     OW  790  -1.822   4.181   6.358
  264SOL    HW1  791  -1.726   4.210   6.353
  264SOL    HW2  792  -1.849   4.173   6.454
  265SOL     OW  793  -1.557   5.608   6.519
  265SOL    HW1  794  -1.600   5.625   6.608
  265SOL    HW2  795  -1.465   5.648   6.518
  266SOL     OW  796  -1.340   5.703   6.517
  266SOL    HW1  797  -1.345   5.790   6.566
  266SOL    HW2  798  -1.281   5.639   6.568
  267SOL     OW  799  -1.295   6.215   6.490
  267SOL    HW1  800  -1.314   6.133   6.545
  267SOL    HW2  801  -1.276   6.292   6.550
  268SOL     OW  802  -1.170   6.479   7.219
  268SOL    HW1  803  -1.227   6.466   7.138
  268SOL    HW2  804  -1.156   6.577   7.234
  269SOL     OW  805  -0.893   5.107   6.777
  269SOL    HW1  806  -0.949   5.117   6.859
  269SOL    HW2  807  -0.834   5.188   6.767
  270SOL     OW  808  -0.623   5.032   6.836
  270SOL    HW1  809  -0.722   5.045   6.826
  270SOL    HW2  810  -0.575   5.100   6.782
  271SOL     OW  811  -0.611   4.768   6.756
  271SOL    HW1  812  -0.619   4.682   6.806
  271SOL    HW2  813  -0.604   4.844   6.819
  272SOL     OW  814  -0.493   5.216   6.691
  272SOL    HW1  815  -0.484   5.214   6.591
  272SOL    HW2  816  -0.447   5.296   6.728
  273SOL     OW  817  -0.050   4.989   6.747
  273SOL    HW1  818  -0.004   4.991   6.658
  273SOL    HW2  819  -0.149   4.986   6.733
  274SOL     OW  820   0.671   5.458   6.989
  274SOL    HW1  821   0.635   5.370   7.019
  274SOL    HW2  822   0.693   5.514   7.069
  275SOL     OW  823   0.948   4.987   7.299
  275SOL    HW1  824   0.880   5.033   7.356
  275SOL    HW2  825   1.038   4.993   7.344
  276SOL     OW  826   0.618   5.606   7.792
  276SOL    HW1  827   0.624   5.508   7.814
  276SOL    HW2  828   0.614   5.658   7.877
  277SOL     OW  829   1.004   5.744   7.693
  277SOL    HW1  830   0.950   5.661   7.681
  277SOL    HW2  831   1.024   5.758   7.790
  278SOL     OW  832   1.009   5.696   8.010
  278SOL    HW1  833   1.073   5.771   8.027
  278SOL    HW2  834   0.922   5.733   7.976
  279SOL     OW  835   1.528   5.113   8.676
  279SOL    HW1  836   1.498   5.195   8.627
  279SOL    HW2  837   1.522   5.130   8.774
  280SOL     OW  838   1.241   4.882   8.500
  280SOL    HW1  839   1.298   4.801   8.490
  280SOL    HW2  840   1.209   4.912   8.410
  281SOL     OW  841   0.770   4.564   8.971
  281SOL    HW1  842   0.808   4.657   8.972
  281SOL    HW2  843   0.801   4.516   8.889
  282SOL     OW  844   0.735   4.368   8.794
  282SOL    HW1  845   0.659   4.303   8.794
  282SOL    HW2  846   0.796   4.348   8.717
  283SOL     OW  847   1.146   5.552   8.898
  283SOL    HW1  848   1.183   5.460   8.911
  283SOL    HW2  849   1.129   5.593   8.988
  284SOL     OW  850   0.459   4.531  10.175
  284SOL    HW1  851   0.489   4.596  10.106
  284SOL    HW2  852   0.521   4.535  10.254
  285SOL     OW  853   0.402   4.418   9.963
  285SOL    HW1  854   0.425   4.464  10.049
  285SOL    HW2  855   0.357   4.331   9.982
  286SOL     OW  856   0.675   4.676  10.185
  286SOL    HW1  857   0.630   4.699  10.099
  286SOL    HW2  858   0.617   4.706  10.261
    12.155    12.155    12.155
