Generated by PDBParser (exclude clash < 1.000 A)
60
    1SOL     OW    1   0.048   0.861  -2.232
    1SOL    HW1    2   0.107   0.780  -2.223
    1SOL    HW2    3   0.005   0.859  -2.323
    2SOL     OW    4   0.925  -0.580  -1.785
    2SOL    HW1    5   0.992  -0.637  -1.833
    2SOL    HW2    6   0.967  -0.552  -1.697
    3SOL     OW    7   0.512  -0.468  -1.845
    3SOL    HW1    8   0.446  -0.522  -1.789
    3SOL    HW2    9   0.458  -0.410  -1.906
    4SOL     OW   10   1.073  -0.809  -1.381
    4SOL    HW1   11   1.071  -0.864  -1.297
    4SOL    HW2   12   1.003  -0.739  -1.375
    5SOL     OW   13   1.513  -0.465  -0.075
    5SOL    HW1   14   1.427  -0.434  -0.116
    5SOL    HW2   15   1.525  -0.418   0.013
    6SOL     OW   16   0.397  -0.944  -2.051
    6SOL    HW1   17   0.444  -0.877  -2.107
    6SOL    HW2   18   0.386  -0.907  -1.959
    7SOL     OW   19   0.722  -0.635  -2.002
    7SOL    HW1   20   0.645  -0.663  -2.060
    7SOL    HW2   21   0.804  -0.677  -2.039
    8SOL     OW   22   1.571  -0.588  -0.819
    8SOL    HW1   23   1.499  -0.593  -0.887
    8SOL    HW2   24   1.648  -0.645  -0.849
    9SOL     OW   25   0.620   0.670  -1.869
    9SOL    HW1   26   0.711   0.632  -1.886
    9SOL    HW2   27   0.628   0.745  -1.803
   10SOL     OW   28   1.605  -0.264  -1.035
   10SOL    HW1   29   1.552  -0.220  -0.962
   10SOL    HW2   30   1.702  -0.255  -1.015
   11SOL     OW   31   1.315  -0.643  -1.567
   11SOL    HW1   32   1.333  -0.685  -1.477
   11SOL    HW2   33   1.221  -0.607  -1.567
   12SOL     OW   34   0.772  -0.338  -1.931
   12SOL    HW1   35   0.808  -0.314  -2.022
   12SOL    HW2   36   0.820  -0.284  -1.861
   13SOL     OW   37   1.154  -0.298  -1.712
   13SOL    HW1   38   1.060  -0.263  -1.716
   13SOL    HW2   39   1.153  -0.386  -1.664
   14SOL     OW   40   1.442  -0.157  -0.810
   14SOL    HW1   41   1.393  -0.236  -0.774
   14SOL    HW2   42   1.489  -0.110  -0.735
   15SOL     OW   43   0.914   0.863  -1.854
   15SOL    HW1   44   0.915   0.764  -1.873
   15SOL    HW2   45   0.837   0.883  -1.791
   16SOL     OW   46   0.897   0.567  -1.898
   16SOL    HW1   47   0.972   0.543  -1.836
   16SOL    HW2   48   0.899   0.504  -1.977
   17SOL     OW   49   1.398   0.021  -1.274
   17SOL    HW1   50   1.486  -0.012  -1.311
   17SOL    HW2   51   1.339   0.049  -1.350
   18SOL     OW   52   1.616  -0.473  -0.550
   18SOL    HW1   53   1.701  -0.420  -0.559
   18SOL    HW2   54   1.594  -0.513  -0.640
   19SOL     OW   55   0.213   1.379  -1.677
   19SOL    HW1   56   0.227   1.333  -1.590
   19SOL    HW2   57   0.231   1.477  -1.666
   20SOL     OW   58   0.995   1.078  -2.042
   20SOL    HW1   59   0.969   1.003  -1.979
   20SOL    HW2   60   1.082   1.055  -2.087
    3.3226    3.3226    3.3226
